   24   24 1000    1
  0.1687566E+02  0.7398733E-09  0.7398733E-09  0.7398733E-09  0.1000000E-14
   300.000000000000     
  CAR 
 Silicon Dioxide (Quartz) - md_nvt       
    128    196     77
