       N       E                     dE             d eps       ncg     rms          rms(c)
DAV:   1     0.993424140358E+03    0.99342E+03   -0.64616E+04 30296   0.148E+03
