 vasp.6.5.0 16Dec24 (build Mar 12 2025 16:11:14) complex                        
  
 executed on             LinuxIFC date 2025.09.22  10:54:02
 running    1 mpi-ranks, on    1 nodes
 distrk:  each k-point on    1 cores,    1 groups
 distr:  one band on NCORE=   1 cores,    1 groups


--------------------------------------------------------------------------------------------------------


 INCAR:
   SYSTEM = Silicon Dioxide (Quartz) - md_nvt
   ENCUT = 520
   PREC = Accurate
   ALGO = Fast
   GGA = PE
   EDIFFG = -0.01
   NSW = 1000
   TEBEG = 300.0
   TEEND = 300.0
   DESCRIPTION = NVT molecular dynamics
   IBRION = 0
   NSW = 5000
   POTIM = 1.0
   MDALGO = 2
   ISIF = 2
   TEBEG = 300
   TEEND = 300
   SMASS = 0
   PREC = Normal

 POTCAR:    PAW_PBE Si 05Jan2001                  
 POTCAR:    PAW_PBE O 08Apr2002                   
 -----------------------------------------------------------------------------
|                                                                             |
|           W    W    AA    RRRRR   N    N  II  N    N   GGGG   !!!           |
|           W    W   A  A   R    R  NN   N  II  NN   N  G    G  !!!           |
|           W    W  A    A  R    R  N N  N  II  N N  N  G       !!!           |
|           W WW W  AAAAAA  RRRRR   N  N N  II  N  N N  G  GGG   !            |
|           WW  WW  A    A  R   R   N   NN  II  N   NN  G    G                |
|           W    W  A    A  R    R  N    N  II  N    N   GGGG   !!!           |
|                                                                             |
|     ISYM>0 for a molecular dynamics simmulation is not recommended.         |
|                                                                             |
 -----------------------------------------------------------------------------

 POTCAR:    PAW_PBE Si 05Jan2001                  
   SHA256 =  79d9987ad8750f624c4d6acb2a16d13abf6a777132adc04dc6c8399be72b42bb Si/POTCAR             
   COPYR  = (c) Copyright 05Jan2001 Georg Kresse                                                    
   COPYR  = This file is part of the software VASP. Any use, copying, and all other rights are regul
   COPYR  = If you do not have a valid VASP license, you may not use, copy or distribute this file. 
   VRHFIN =Si: s2p2                                                                                 
   LEXCH  = PE                                                                                      
   EATOM  =   103.0669 eV,    7.5752 Ry                                                             
                                                                                                    
   TITEL  = PAW_PBE Si 05Jan2001                                                                    
   LULTRA =        F    use ultrasoft PP ?                                                          
   IUNSCR =        1    unscreen: 0-lin 1-nonlin 2-no                                               
   RPACOR =    1.500    partial core radius                                                         
   POMASS =   28.085; ZVAL   =    4.000    mass and valenz                                          
   RCORE  =    1.900    outmost cutoff radius                                                       
   RWIGS  =    2.480; RWIGS  =    1.312    wigner-seitz radius (au A)                               
   ENMAX  =  245.345; ENMIN  =  184.009 eV                                                          
   ICORE  =        2    local potential                                                             
   LCOR   =        T    correct aug charges                                                         
   LPAW   =        T    paw PP                                                                      
   EAUG   =  322.069                                                                                
   DEXC   =    0.000                                                                                
   RMAX   =    1.950    core radius for proj-oper                                                   
   RAUG   =    1.300    factor for augmentation sphere                                              
   RDEP   =    1.993    radius for radial grids                                                     
   RDEPT  =    1.837    core radius for aug-charge                                                  
                                                                                                    
   Atomic configuration                                                                             
    6 entries                                                                                       
     n  l   j            E        occ.                                                              
     1  0  0.50     -1785.8828   2.0000                                                             
     2  0  0.50      -139.4969   2.0000                                                             
     2  1  1.50       -95.5546   6.0000                                                             
     3  0  0.50       -10.8127   2.0000                                                             
     3  1  0.50        -4.0811   2.0000                                                             
     3  2  1.50        -4.0817   0.0000                                                             
   Description                                                                                      
     l       E           TYP  RCUT    TYP  RCUT                                                     
     0    -10.8127223     23  1.900                                                                 
     0     -7.6451159     23  1.900                                                                 
     1     -4.0811372     23  1.900                                                                 
     1      2.4879257     23  1.900                                                                 
     2     -4.0817478      7  1.900                                                                 
  local pseudopotential read in
  partial core-charges read in
  partial kinetic energy density read in
  atomic valenz-charges read in
  non local Contribution for L=           0  read in
    real space projection operators read in
  non local Contribution for L=           0  read in
    real space projection operators read in
  non local Contribution for L=           1  read in
    real space projection operators read in
  non local Contribution for L=           1  read in
    real space projection operators read in
    PAW grid and wavefunctions read in
 
   number of l-projection  operators is LMAX  =           4
   number of lm-projection operators is LMMAX =           8
 
 POTCAR:    PAW_PBE O 08Apr2002                   
   SHA256 =  818f92134a0a090dccd8ba1447fa70422a3b330e708bb4f08108d8ae51209ddf O/POTCAR              
   COPYR  = (c) Copyright 08Apr2002 Georg Kresse                                                    
   COPYR  = This file is part of the software VASP. Any use, copying, and all other rights are regul
   COPYR  = If you do not have a valid VASP license, you may not use, copy or distribute this file. 
   VRHFIN =O: s2p4                                                                                  
   LEXCH  = PE                                                                                      
   EATOM  =   432.3788 eV,   31.7789 Ry                                                             
                                                                                                    
   TITEL  = PAW_PBE O 08Apr2002                                                                     
   LULTRA =        F    use ultrasoft PP ?                                                          
   IUNSCR =        1    unscreen: 0-lin 1-nonlin 2-no                                               
   RPACOR =    1.200    partial core radius                                                         
   POMASS =   16.000; ZVAL   =    6.000    mass and valenz                                          
   RCORE  =    1.520    outmost cutoff radius                                                       
   RWIGS  =    1.550; RWIGS  =    0.820    wigner-seitz radius (au A)                               
   ENMAX  =  400.000; ENMIN  =  300.000 eV                                                          
   ICORE  =        2    local potential                                                             
   LCOR   =        T    correct aug charges                                                         
   LPAW   =        T    paw PP                                                                      
   EAUG   =  605.392                                                                                
   DEXC   =    0.000                                                                                
   RMAX   =    1.553    core radius for proj-oper                                                   
   RAUG   =    1.300    factor for augmentation sphere                                              
   RDEP   =    1.550    radius for radial grids                                                     
   RDEPT  =    1.329    core radius for aug-charge                                                  
                                                                                                    
   Atomic configuration                                                                             
    4 entries                                                                                       
     n  l   j            E        occ.                                                              
     1  0  0.50      -514.6923   2.0000                                                             
     2  0  0.50       -23.9615   2.0000                                                             
     2  1  0.50        -9.0305   4.0000                                                             
     3  2  1.50        -9.5241   0.0000                                                             
   Description                                                                                      
     l       E           TYP  RCUT    TYP  RCUT                                                     
     0    -23.9615318     23  1.200                                                                 
     0     -9.5240782     23  1.200                                                                 
     1     -9.0304911     23  1.520                                                                 
     1      8.1634956     23  1.520                                                                 
     2     -9.5240782      7  1.500                                                                 
  local pseudopotential read in
  partial core-charges read in
  partial kinetic energy density read in
  kinetic energy density of atom read in
  atomic valenz-charges read in
  non local Contribution for L=           0  read in
    real space projection operators read in
  non local Contribution for L=           0  read in
    real space projection operators read in
  non local Contribution for L=           1  read in
    real space projection operators read in
  non local Contribution for L=           1  read in
    real space projection operators read in
    PAW grid and wavefunctions read in
 
   number of l-projection  operators is LMAX  =           4
   number of lm-projection operators is LMMAX =           8
 
 -----------------------------------------------------------------------------
|                                                                             |
|               ----> ADVICE to this user running VASP <----                  |
|                                                                             |
|     You have a (more or less) 'large supercell' and for larger cells it     |
|     might be more efficient to use real-space projection operators.         |
|     Therefore, try LREAL= Auto in the INCAR file.                           |
|     Mind: For very accurate calculation, you might also keep the            |
|     reciprocal projection scheme (i.e. LREAL=.FALSE.).                      |
|                                                                             |
 -----------------------------------------------------------------------------

  PAW_PBE Si 05Jan2001                  :
 energy of atom  1       EATOM= -103.0669
 kinetic energy error for atom=    0.0005 (will be added to EATOM!!)
  PAW_PBE O 08Apr2002                   :
 energy of atom  2       EATOM= -432.3788
 kinetic energy error for atom=    0.0208 (will be added to EATOM!!)
 
 
 POSCAR: Si8 O16
  positions in direct lattice
  No initial velocities read in



  MD-specific parameters
                MDALGO =   2
                 CNEXP =     9.000   14.000
 exchange-correlation table for PE
   RHO(1)=    0.500       N(1)  =     2000
   RHO(2)=  100.500       N(2)  =     4000
 


--------------------------------------------------------------------------------------------------------


 ion  position               nearest neighbor table
   1  0.250  0.250  0.250-  10 1.60  21 1.60  24 1.60  11 1.60
   2  0.500  0.000  0.500-  10 1.60  12 1.60  17 1.60  19 1.60
   3  0.250  0.750  0.750-  14 1.60  17 1.60  20 1.60  15 1.60
   4  0.500  0.500  0.000-  14 1.60  16 1.60  21 1.60  23 1.60
   5  0.750  0.250  0.750-  13 1.60  16 1.60  18 1.60  19 1.60
   6  0.000  0.000  0.000-   9 1.60  18 1.60  20 1.60  11 1.60
   7  0.750  0.750  0.250-   9 1.60  12 1.60  22 1.60  23 1.60
   8  0.000  0.500  0.500-  13 1.60  22 1.60  24 1.60  15 1.60
   9  0.875  0.875  0.125-   6 1.60   7 1.60
  10  0.375  0.125  0.375-   1 1.60   2 1.60
  11  0.125  0.125  0.125-   1 1.60   6 1.60
  12  0.625  0.875  0.375-   2 1.60   7 1.60
  13  0.875  0.375  0.625-   5 1.60   8 1.60
  14  0.375  0.625  0.875-   3 1.60   4 1.60
  15  0.125  0.625  0.625-   3 1.60   8 1.60
  16  0.625  0.375  0.875-   4 1.60   5 1.60
  17  0.375  0.875  0.625-   2 1.60   3 1.60
  18  0.875  0.125  0.875-   5 1.60   6 1.60
  19  0.625  0.125  0.625-   2 1.60   5 1.60
  20  0.125  0.875  0.875-   3 1.60   6 1.60
  21  0.375  0.375  0.125-   1 1.60   4 1.60
  22  0.875  0.625  0.375-   7 1.60   8 1.60
  23  0.625  0.625  0.125-   4 1.60   7 1.60
  24  0.125  0.375  0.375-   1 1.60   8 1.60
 
  LATTYP: Found a simple cubic cell.
 ALAT       =     7.3987326800
  
  Lattice vectors:
  
 A1 = (   7.3987326800,   0.0000000000,   0.0000000000)
 A2 = (   0.0000000000,   7.3987326800,   0.0000000000)
 A3 = (   0.0000000000,   0.0000000000,   7.3987326800)


Analysis of symmetry for initial positions (statically):
=====================================================================
 Subroutine PRICEL returns following result:
 
  LATTYP: Found a face centered cubic cell.
 ALAT       =     7.3987326800
  
  Lattice vectors:
  
 A1 = (   3.6993663400,  -3.6993663400,   0.0000000000)
 A2 = (   3.6993663400,   0.0000000000,   3.6993663400)
 A3 = (  -0.0000000000,  -3.6993663400,   3.6993663400)
 
   4 primitive cells build up your supercell.
 

 Routine SETGRP: Setting up the symmetry group for a 
 simple cubic supercell.


 Subroutine GETGRP returns: Found 48 space group operations
 (whereof 24 operations were pure point group operations)
 out of a pool of 48 trial point group operations.


The static configuration has the point symmetry T_d .
 The point group associated with its full space group is O_h .


Analysis of symmetry for dynamics (positions and initial velocities):
=====================================================================
 Subroutine PRICEL returns:
 Original cell was already a primitive cell.
 

 Routine SETGRP: Setting up the symmetry group for a 
 simple cubic supercell.


 Subroutine GETGRP returns: Found  1 space group operations
 (whereof  1 operations were pure point group operations)
 out of a pool of 48 trial point group operations.


The dynamic configuration has the point symmetry C_1 .


 Subroutine INISYM returns: Found  1 space group operations
 (whereof  1 operations are pure point group operations),
 and found     1 'primitive' translations


----------------------------------------------------------------------------------------

                                     Primitive cell                                     

  volume of cell :     405.0158

  direct lattice vectors                    reciprocal lattice vectors
     7.398732680  0.000000000  0.000000000     0.135158282 -0.000000000  0.000000000
     0.000000000  7.398732680  0.000000000     0.000000000  0.135158282  0.000000000
     0.000000000  0.000000000  7.398732680    -0.000000000 -0.000000000  0.135158282

  length of vectors
     7.398732680  7.398732680  7.398732680     0.135158282  0.135158282  0.135158282

  position of ions in fractional coordinates (direct lattice)
     0.250000000  0.250000000  0.250000000
     0.500000000  0.000000000  0.500000000
     0.250000000  0.750000000  0.750000000
     0.500000000  0.500000000  0.000000000
     0.750000000  0.250000000  0.750000000
     0.000000000  0.000000000  0.000000000
     0.750000000  0.750000000  0.250000000
     0.000000000  0.500000000  0.500000000
     0.875000000  0.875000000  0.125000000
     0.375000000  0.125000000  0.375000000
     0.125000000  0.125000000  0.125000000
     0.625000000  0.875000000  0.375000000
     0.875000000  0.375000000  0.625000000
     0.375000000  0.625000000  0.875000000
     0.125000000  0.625000000  0.625000000
     0.625000000  0.375000000  0.875000000
     0.375000000  0.875000000  0.625000000
     0.875000000  0.125000000  0.875000000
     0.625000000  0.125000000  0.625000000
     0.125000000  0.875000000  0.875000000
     0.375000000  0.375000000  0.125000000
     0.875000000  0.625000000  0.375000000
     0.625000000  0.625000000  0.125000000
     0.125000000  0.375000000  0.375000000

  ion indices of the primitive-cell ions
   primitive index   ion index
                 1           1
                 2           2
                 3           3
                 4           4
                 5           5
                 6           6
                 7           7
                 8           8
                 9           9
                10          10
                11          11
                12          12
                13          13
                14          14
                15          15
                16          16
                17          17
                18          18
                19          19
                20          20
                21          21
                22          22
                23          23
                24          24

----------------------------------------------------------------------------------------

 
 
 KPOINTS: Automatic mesh                          

Automatic generation of k-mesh.
 Grid dimensions read from file:
 generate k-points for:    8    8    6

 Generating k-lattice:

  Cartesian coordinates                     Fractional coordinates (reciprocal lattice)
     0.016894785 -0.000000000  0.000000000     0.125000000  0.000000000  0.000000000
     0.000000000  0.016894785  0.000000000     0.000000000  0.125000000  0.000000000
    -0.000000000 -0.000000000  0.022526380     0.000000000  0.000000000  0.166666667

  Length of vectors
     0.016894785  0.016894785  0.022526380

  Shift w.r.t. Gamma in fractional coordinates (k-lattice)
     0.000000000  0.000000000  0.000000000

 -----------------------------------------------------------------------------
|                                                                             |
|           W    W    AA    RRRRR   N    N  II  N    N   GGGG   !!!           |
|           W    W   A  A   R    R  NN   N  II  NN   N  G    G  !!!           |
|           W    W  A    A  R    R  N N  N  II  N N  N  G       !!!           |
|           W WW W  AAAAAA  RRRRR   N  N N  II  N  N N  G  GGG   !            |
|           WW  WW  A    A  R   R   N   NN  II  N   NN  G    G                |
|           W    W  A    A  R    R  N    N  II  N    N   GGGG   !!!           |
|                                                                             |
|     Your reciprocal lattice and k-lattice belong to different lattice       |
|     classes:                                                                |
|                                                                             |
|        The reciprocal lattice is simple cubic,                              |
|        whereas your k-lattice is simple tetragonal.                         |
|                                                                             |
|     Results are often still useful ...                                      |
|                                                                             |
 -----------------------------------------------------------------------------

 WARNING: IBZKPT: internal override: KBLOWUP is changed to .FALSE.
      ... skipping the blow-up phase ...

 
 Subroutine IBZKPT returns following result:
 ===========================================
 
 Found    196 irreducible k-points:
 
 Following reciprocal coordinates:
            Coordinates               Weight
  0.000000  0.000000  0.000000      1.000000
  0.125000  0.000000  0.000000      2.000000
  0.250000  0.000000  0.000000      2.000000
  0.375000 -0.000000  0.000000      2.000000
  0.500000  0.000000  0.000000      1.000000
  0.000000  0.125000  0.000000      2.000000
  0.125000  0.125000  0.000000      2.000000
  0.250000  0.125000  0.000000      2.000000
  0.375000  0.125000  0.000000      2.000000
  0.500000  0.125000  0.000000      2.000000
 -0.375000  0.125000  0.000000      2.000000
 -0.250000  0.125000  0.000000      2.000000
 -0.125000  0.125000  0.000000      2.000000
  0.000000  0.250000  0.000000      2.000000
  0.125000  0.250000  0.000000      2.000000
  0.250000  0.250000  0.000000      2.000000
  0.375000  0.250000  0.000000      2.000000
  0.500000  0.250000  0.000000      2.000000
 -0.375000  0.250000  0.000000      2.000000
 -0.250000  0.250000  0.000000      2.000000
 -0.125000  0.250000  0.000000      2.000000
  0.000000  0.375000  0.000000      2.000000
  0.125000  0.375000  0.000000      2.000000
  0.250000  0.375000  0.000000      2.000000
  0.375000  0.375000  0.000000      2.000000
  0.500000  0.375000  0.000000      2.000000
 -0.375000  0.375000  0.000000      2.000000
 -0.250000  0.375000  0.000000      2.000000
 -0.125000  0.375000  0.000000      2.000000
  0.000000  0.500000  0.000000      1.000000
  0.125000  0.500000  0.000000      2.000000
  0.250000  0.500000  0.000000      2.000000
  0.375000  0.500000  0.000000      2.000000
  0.500000  0.500000  0.000000      1.000000
  0.000000  0.000000  0.166667      2.000000
  0.125000  0.000000  0.166667      2.000000
  0.250000  0.000000  0.166667      2.000000
  0.375000 -0.000000  0.166667      2.000000
  0.500000  0.000000  0.166667      2.000000
 -0.375000  0.000000  0.166667      2.000000
 -0.250000  0.000000  0.166667      2.000000
 -0.125000  0.000000  0.166667      2.000000
  0.000000  0.125000  0.166667      2.000000
  0.125000  0.125000  0.166667      2.000000
  0.250000  0.125000  0.166667      2.000000
  0.375000  0.125000  0.166667      2.000000
  0.500000  0.125000  0.166667      2.000000
 -0.375000  0.125000  0.166667      2.000000
 -0.250000  0.125000  0.166667      2.000000
 -0.125000  0.125000  0.166667      2.000000
  0.000000  0.250000  0.166667      2.000000
  0.125000  0.250000  0.166667      2.000000
  0.250000  0.250000  0.166667      2.000000
  0.375000  0.250000  0.166667      2.000000
  0.500000  0.250000  0.166667      2.000000
 -0.375000  0.250000  0.166667      2.000000
 -0.250000  0.250000  0.166667      2.000000
 -0.125000  0.250000  0.166667      2.000000
  0.000000  0.375000  0.166667      2.000000
  0.125000  0.375000  0.166667      2.000000
  0.250000  0.375000  0.166667      2.000000
  0.375000  0.375000  0.166667      2.000000
  0.500000  0.375000  0.166667      2.000000
 -0.375000  0.375000  0.166667      2.000000
 -0.250000  0.375000  0.166667      2.000000
 -0.125000  0.375000  0.166667      2.000000
  0.000000  0.500000  0.166667      2.000000
  0.125000  0.500000  0.166667      2.000000
  0.250000  0.500000  0.166667      2.000000
  0.375000  0.500000  0.166667      2.000000
  0.500000  0.500000  0.166667      2.000000
 -0.375000  0.500000  0.166667      2.000000
 -0.250000  0.500000  0.166667      2.000000
 -0.125000  0.500000  0.166667      2.000000
  0.000000 -0.375000  0.166667      2.000000
  0.125000 -0.375000  0.166667      2.000000
  0.250000 -0.375000  0.166667      2.000000
  0.375000 -0.375000  0.166667      2.000000
  0.500000 -0.375000  0.166667      2.000000
 -0.375000 -0.375000  0.166667      2.000000
 -0.250000 -0.375000  0.166667      2.000000
 -0.125000 -0.375000  0.166667      2.000000
  0.000000 -0.250000  0.166667      2.000000
  0.125000 -0.250000  0.166667      2.000000
  0.250000 -0.250000  0.166667      2.000000
  0.375000 -0.250000  0.166667      2.000000
  0.500000 -0.250000  0.166667      2.000000
 -0.375000 -0.250000  0.166667      2.000000
 -0.250000 -0.250000  0.166667      2.000000
 -0.125000 -0.250000  0.166667      2.000000
  0.000000 -0.125000  0.166667      2.000000
  0.125000 -0.125000  0.166667      2.000000
  0.250000 -0.125000  0.166667      2.000000
  0.375000 -0.125000  0.166667      2.000000
  0.500000 -0.125000  0.166667      2.000000
 -0.375000 -0.125000  0.166667      2.000000
 -0.250000 -0.125000  0.166667      2.000000
 -0.125000 -0.125000  0.166667      2.000000
  0.000000  0.000000  0.333333      2.000000
  0.125000  0.000000  0.333333      2.000000
  0.250000  0.000000  0.333333      2.000000
  0.375000 -0.000000  0.333333      2.000000
  0.500000  0.000000  0.333333      2.000000
 -0.375000  0.000000  0.333333      2.000000
 -0.250000  0.000000  0.333333      2.000000
 -0.125000  0.000000  0.333333      2.000000
  0.000000  0.125000  0.333333      2.000000
  0.125000  0.125000  0.333333      2.000000
  0.250000  0.125000  0.333333      2.000000
  0.375000  0.125000  0.333333      2.000000
  0.500000  0.125000  0.333333      2.000000
 -0.375000  0.125000  0.333333      2.000000
 -0.250000  0.125000  0.333333      2.000000
 -0.125000  0.125000  0.333333      2.000000
  0.000000  0.250000  0.333333      2.000000
  0.125000  0.250000  0.333333      2.000000
  0.250000  0.250000  0.333333      2.000000
  0.375000  0.250000  0.333333      2.000000
  0.500000  0.250000  0.333333      2.000000
 -0.375000  0.250000  0.333333      2.000000
 -0.250000  0.250000  0.333333      2.000000
 -0.125000  0.250000  0.333333      2.000000
  0.000000  0.375000  0.333333      2.000000
  0.125000  0.375000  0.333333      2.000000
  0.250000  0.375000  0.333333      2.000000
  0.375000  0.375000  0.333333      2.000000
  0.500000  0.375000  0.333333      2.000000
 -0.375000  0.375000  0.333333      2.000000
 -0.250000  0.375000  0.333333      2.000000
 -0.125000  0.375000  0.333333      2.000000
  0.000000  0.500000  0.333333      2.000000
  0.125000  0.500000  0.333333      2.000000
  0.250000  0.500000  0.333333      2.000000
  0.375000  0.500000  0.333333      2.000000
  0.500000  0.500000  0.333333      2.000000
 -0.375000  0.500000  0.333333      2.000000
 -0.250000  0.500000  0.333333      2.000000
 -0.125000  0.500000  0.333333      2.000000
  0.000000 -0.375000  0.333333      2.000000
  0.125000 -0.375000  0.333333      2.000000
  0.250000 -0.375000  0.333333      2.000000
  0.375000 -0.375000  0.333333      2.000000
  0.500000 -0.375000  0.333333      2.000000
 -0.375000 -0.375000  0.333333      2.000000
 -0.250000 -0.375000  0.333333      2.000000
 -0.125000 -0.375000  0.333333      2.000000
  0.000000 -0.250000  0.333333      2.000000
  0.125000 -0.250000  0.333333      2.000000
  0.250000 -0.250000  0.333333      2.000000
  0.375000 -0.250000  0.333333      2.000000
  0.500000 -0.250000  0.333333      2.000000
 -0.375000 -0.250000  0.333333      2.000000
 -0.250000 -0.250000  0.333333      2.000000
 -0.125000 -0.250000  0.333333      2.000000
  0.000000 -0.125000  0.333333      2.000000
  0.125000 -0.125000  0.333333      2.000000
  0.250000 -0.125000  0.333333      2.000000
  0.375000 -0.125000  0.333333      2.000000
  0.500000 -0.125000  0.333333      2.000000
 -0.375000 -0.125000  0.333333      2.000000
 -0.250000 -0.125000  0.333333      2.000000
 -0.125000 -0.125000  0.333333      2.000000
  0.000000  0.000000  0.500000      1.000000
  0.125000  0.000000  0.500000      2.000000
  0.250000 -0.000000  0.500000      2.000000
  0.375000 -0.000000  0.500000      2.000000
  0.500000  0.000000  0.500000      1.000000
  0.000000  0.125000  0.500000      2.000000
  0.125000  0.125000  0.500000      2.000000
  0.250000  0.125000  0.500000      2.000000
  0.375000  0.125000  0.500000      2.000000
  0.500000  0.125000  0.500000      2.000000
 -0.375000  0.125000  0.500000      2.000000
 -0.250000  0.125000  0.500000      2.000000
 -0.125000  0.125000  0.500000      2.000000
  0.000000  0.250000  0.500000      2.000000
  0.125000  0.250000  0.500000      2.000000
  0.250000  0.250000  0.500000      2.000000
  0.375000  0.250000  0.500000      2.000000
  0.500000  0.250000  0.500000      2.000000
 -0.375000  0.250000  0.500000      2.000000
 -0.250000  0.250000  0.500000      2.000000
 -0.125000  0.250000  0.500000      2.000000
  0.000000  0.375000  0.500000      2.000000
  0.125000  0.375000  0.500000      2.000000
  0.250000  0.375000  0.500000      2.000000
  0.375000  0.375000  0.500000      2.000000
  0.500000  0.375000  0.500000      2.000000
 -0.375000  0.375000  0.500000      2.000000
 -0.250000  0.375000  0.500000      2.000000
 -0.125000  0.375000  0.500000      2.000000
  0.000000  0.500000  0.500000      1.000000
  0.125000  0.500000  0.500000      2.000000
  0.250000  0.500000  0.500000      2.000000
  0.375000  0.500000  0.500000      2.000000
  0.500000  0.500000  0.500000      1.000000
 
 Following cartesian coordinates:
            Coordinates               Weight
  0.000000  0.000000  0.000000      1.000000
  0.016895 -0.000000  0.000000      2.000000
  0.033790 -0.000000  0.000000      2.000000
  0.050684 -0.000000  0.000000      2.000000
  0.067579 -0.000000  0.000000      1.000000
  0.000000  0.016895  0.000000      2.000000
  0.016895  0.016895  0.000000      2.000000
  0.033790  0.016895  0.000000      2.000000
  0.050684  0.016895  0.000000      2.000000
  0.067579  0.016895  0.000000      2.000000
 -0.050684  0.016895  0.000000      2.000000
 -0.033790  0.016895  0.000000      2.000000
 -0.016895  0.016895  0.000000      2.000000
  0.000000  0.033790  0.000000      2.000000
  0.016895  0.033790  0.000000      2.000000
  0.033790  0.033790  0.000000      2.000000
  0.050684  0.033790  0.000000      2.000000
  0.067579  0.033790  0.000000      2.000000
 -0.050684  0.033790  0.000000      2.000000
 -0.033790  0.033790  0.000000      2.000000
 -0.016895  0.033790  0.000000      2.000000
  0.000000  0.050684  0.000000      2.000000
  0.016895  0.050684  0.000000      2.000000
  0.033790  0.050684  0.000000      2.000000
  0.050684  0.050684  0.000000      2.000000
  0.067579  0.050684  0.000000      2.000000
 -0.050684  0.050684  0.000000      2.000000
 -0.033790  0.050684  0.000000      2.000000
 -0.016895  0.050684  0.000000      2.000000
  0.000000  0.067579  0.000000      1.000000
  0.016895  0.067579  0.000000      2.000000
  0.033790  0.067579  0.000000      2.000000
  0.050684  0.067579  0.000000      2.000000
  0.067579  0.067579  0.000000      1.000000
 -0.000000 -0.000000  0.022526      2.000000
  0.016895 -0.000000  0.022526      2.000000
  0.033790 -0.000000  0.022526      2.000000
  0.050684 -0.000000  0.022526      2.000000
  0.067579 -0.000000  0.022526      2.000000
 -0.050684  0.000000  0.022526      2.000000
 -0.033790  0.000000  0.022526      2.000000
 -0.016895  0.000000  0.022526      2.000000
 -0.000000  0.016895  0.022526      2.000000
  0.016895  0.016895  0.022526      2.000000
  0.033790  0.016895  0.022526      2.000000
  0.050684  0.016895  0.022526      2.000000
  0.067579  0.016895  0.022526      2.000000
 -0.050684  0.016895  0.022526      2.000000
 -0.033790  0.016895  0.022526      2.000000
 -0.016895  0.016895  0.022526      2.000000
 -0.000000  0.033790  0.022526      2.000000
  0.016895  0.033790  0.022526      2.000000
  0.033790  0.033790  0.022526      2.000000
  0.050684  0.033790  0.022526      2.000000
  0.067579  0.033790  0.022526      2.000000
 -0.050684  0.033790  0.022526      2.000000
 -0.033790  0.033790  0.022526      2.000000
 -0.016895  0.033790  0.022526      2.000000
 -0.000000  0.050684  0.022526      2.000000
  0.016895  0.050684  0.022526      2.000000
  0.033790  0.050684  0.022526      2.000000
  0.050684  0.050684  0.022526      2.000000
  0.067579  0.050684  0.022526      2.000000
 -0.050684  0.050684  0.022526      2.000000
 -0.033790  0.050684  0.022526      2.000000
 -0.016895  0.050684  0.022526      2.000000
 -0.000000  0.067579  0.022526      2.000000
  0.016895  0.067579  0.022526      2.000000
  0.033790  0.067579  0.022526      2.000000
  0.050684  0.067579  0.022526      2.000000
  0.067579  0.067579  0.022526      2.000000
 -0.050684  0.067579  0.022526      2.000000
 -0.033790  0.067579  0.022526      2.000000
 -0.016895  0.067579  0.022526      2.000000
 -0.000000 -0.050684  0.022526      2.000000
  0.016895 -0.050684  0.022526      2.000000
  0.033790 -0.050684  0.022526      2.000000
  0.050684 -0.050684  0.022526      2.000000
  0.067579 -0.050684  0.022526      2.000000
 -0.050684 -0.050684  0.022526      2.000000
 -0.033790 -0.050684  0.022526      2.000000
 -0.016895 -0.050684  0.022526      2.000000
 -0.000000 -0.033790  0.022526      2.000000
  0.016895 -0.033790  0.022526      2.000000
  0.033790 -0.033790  0.022526      2.000000
  0.050684 -0.033790  0.022526      2.000000
  0.067579 -0.033790  0.022526      2.000000
 -0.050684 -0.033790  0.022526      2.000000
 -0.033790 -0.033790  0.022526      2.000000
 -0.016895 -0.033790  0.022526      2.000000
 -0.000000 -0.016895  0.022526      2.000000
  0.016895 -0.016895  0.022526      2.000000
  0.033790 -0.016895  0.022526      2.000000
  0.050684 -0.016895  0.022526      2.000000
  0.067579 -0.016895  0.022526      2.000000
 -0.050684 -0.016895  0.022526      2.000000
 -0.033790 -0.016895  0.022526      2.000000
 -0.016895 -0.016895  0.022526      2.000000
 -0.000000 -0.000000  0.045053      2.000000
  0.016895 -0.000000  0.045053      2.000000
  0.033790 -0.000000  0.045053      2.000000
  0.050684 -0.000000  0.045053      2.000000
  0.067579 -0.000000  0.045053      2.000000
 -0.050684  0.000000  0.045053      2.000000
 -0.033790  0.000000  0.045053      2.000000
 -0.016895 -0.000000  0.045053      2.000000
 -0.000000  0.016895  0.045053      2.000000
  0.016895  0.016895  0.045053      2.000000
  0.033790  0.016895  0.045053      2.000000
  0.050684  0.016895  0.045053      2.000000
  0.067579  0.016895  0.045053      2.000000
 -0.050684  0.016895  0.045053      2.000000
 -0.033790  0.016895  0.045053      2.000000
 -0.016895  0.016895  0.045053      2.000000
 -0.000000  0.033790  0.045053      2.000000
  0.016895  0.033790  0.045053      2.000000
  0.033790  0.033790  0.045053      2.000000
  0.050684  0.033790  0.045053      2.000000
  0.067579  0.033790  0.045053      2.000000
 -0.050684  0.033790  0.045053      2.000000
 -0.033790  0.033790  0.045053      2.000000
 -0.016895  0.033790  0.045053      2.000000
 -0.000000  0.050684  0.045053      2.000000
  0.016895  0.050684  0.045053      2.000000
  0.033790  0.050684  0.045053      2.000000
  0.050684  0.050684  0.045053      2.000000
  0.067579  0.050684  0.045053      2.000000
 -0.050684  0.050684  0.045053      2.000000
 -0.033790  0.050684  0.045053      2.000000
 -0.016895  0.050684  0.045053      2.000000
 -0.000000  0.067579  0.045053      2.000000
  0.016895  0.067579  0.045053      2.000000
  0.033790  0.067579  0.045053      2.000000
  0.050684  0.067579  0.045053      2.000000
  0.067579  0.067579  0.045053      2.000000
 -0.050684  0.067579  0.045053      2.000000
 -0.033790  0.067579  0.045053      2.000000
 -0.016895  0.067579  0.045053      2.000000
 -0.000000 -0.050684  0.045053      2.000000
  0.016895 -0.050684  0.045053      2.000000
  0.033790 -0.050684  0.045053      2.000000
  0.050684 -0.050684  0.045053      2.000000
  0.067579 -0.050684  0.045053      2.000000
 -0.050684 -0.050684  0.045053      2.000000
 -0.033790 -0.050684  0.045053      2.000000
 -0.016895 -0.050684  0.045053      2.000000
 -0.000000 -0.033790  0.045053      2.000000
  0.016895 -0.033790  0.045053      2.000000
  0.033790 -0.033790  0.045053      2.000000
  0.050684 -0.033790  0.045053      2.000000
  0.067579 -0.033790  0.045053      2.000000
 -0.050684 -0.033790  0.045053      2.000000
 -0.033790 -0.033790  0.045053      2.000000
 -0.016895 -0.033790  0.045053      2.000000
 -0.000000 -0.016895  0.045053      2.000000
  0.016895 -0.016895  0.045053      2.000000
  0.033790 -0.016895  0.045053      2.000000
  0.050684 -0.016895  0.045053      2.000000
  0.067579 -0.016895  0.045053      2.000000
 -0.050684 -0.016895  0.045053      2.000000
 -0.033790 -0.016895  0.045053      2.000000
 -0.016895 -0.016895  0.045053      2.000000
 -0.000000 -0.000000  0.067579      1.000000
  0.016895 -0.000000  0.067579      2.000000
  0.033790 -0.000000  0.067579      2.000000
  0.050684 -0.000000  0.067579      2.000000
  0.067579 -0.000000  0.067579      1.000000
 -0.000000  0.016895  0.067579      2.000000
  0.016895  0.016895  0.067579      2.000000
  0.033790  0.016895  0.067579      2.000000
  0.050684  0.016895  0.067579      2.000000
  0.067579  0.016895  0.067579      2.000000
 -0.050684  0.016895  0.067579      2.000000
 -0.033790  0.016895  0.067579      2.000000
 -0.016895  0.016895  0.067579      2.000000
 -0.000000  0.033790  0.067579      2.000000
  0.016895  0.033790  0.067579      2.000000
  0.033790  0.033790  0.067579      2.000000
  0.050684  0.033790  0.067579      2.000000
  0.067579  0.033790  0.067579      2.000000
 -0.050684  0.033790  0.067579      2.000000
 -0.033790  0.033790  0.067579      2.000000
 -0.016895  0.033790  0.067579      2.000000
 -0.000000  0.050684  0.067579      2.000000
  0.016895  0.050684  0.067579      2.000000
  0.033790  0.050684  0.067579      2.000000
  0.050684  0.050684  0.067579      2.000000
  0.067579  0.050684  0.067579      2.000000
 -0.050684  0.050684  0.067579      2.000000
 -0.033790  0.050684  0.067579      2.000000
 -0.016895  0.050684  0.067579      2.000000
 -0.000000  0.067579  0.067579      1.000000
  0.016895  0.067579  0.067579      2.000000
  0.033790  0.067579  0.067579      2.000000
  0.050684  0.067579  0.067579      2.000000
  0.067579  0.067579  0.067579      1.000000
 


--------------------------------------------------------------------------------------------------------




 Dimension of arrays:
   k-points           NKPTS =    196   k-points in BZ     NKDIM =    196   number of bands    NBANDS=     77
   number of dos      NEDOS =    301   number of ions     NIONS =     24
   non local maximal  LDIM  =      4   non local SUM 2l+1 LMDIM =      8
   total plane-waves  NPLWV = 175616
   max r-space proj   IRMAX =      1   max aug-charges    IRDMAX=  14695
   dimension x,y,z NGX =    56 NGY =   56 NGZ =   56
   dimension x,y,z NGXF=   112 NGYF=  112 NGZF=  112
   support grid    NGXF=   112 NGYF=  112 NGZF=  112
   ions per type =               8  16
   NGX,Y,Z   is equivalent  to a cutoff of  12.58, 12.58, 12.58 a.u.
   NGXF,Y,Z  is equivalent  to a cutoff of  25.17, 25.17, 25.17 a.u.

 SYSTEM =  Silicon Dioxide (Quartz) - md_nvt       
 POSCAR =  Si8 O16                                 

 Startparameter for this run:
   NWRITE =      2    write-flag & timer
   PREC   = accura    normal or accurate (medium, high low for compatibility)
   ISTART =      0    job   : 0-new  1-cont  2-samecut
   ICHARG =      2    charge: 1-file 2-atom 10-const
   ISPIN  =      1    spin polarized calculation?
   LNONCOLLINEAR =      F non collinear calculations
   LSORBIT =      F    spin-orbit coupling
   INIWAV =      1    electr: 0-lowe 1-rand  2-diag
   LASPH  =      F    aspherical Exc in radial PAW
 Electronic Relaxation 1
   ENCUT  =  520.0 eV  38.22 Ry    6.18 a.u.  13.76 13.76 13.76*2*pi/ulx,y,z
   ENINI  =  520.0     initial cutoff
   ENAUG  =  605.4 eV  augmentation charge cutoff
   NELM   =     60;   NELMIN=  2; NELMDL= -5     # of ELM steps 
   EDIFF  = 0.1E-03   stopping-criterion for ELM
   LREAL  =      F    real-space projection
   NLSPLINE    = F    spline interpolate recip. space projectors
   LCOMPAT=      F    compatible to vasp.4.4
   GGA_COMPAT  = T    GGA compatible to vasp.4.4-vasp.4.6
   LMAXPAW     = -100 max onsite density
   LMAXMIX     =    2 max onsite mixed and CHGCAR
   VOSKOWN=      0    Vosko Wilk Nusair interpolation
   ROPT   =    0.00000   0.00000
 Ionic relaxation
   EDIFFG = -.1E-01   stopping-criterion for IOM
   NSW    =   1000    number of steps for IOM
   NBLOCK =      1;   KBLOCK =   1000    inner block; outer block 
   IBRION =      0    ionic relax: 0-MD 1-quasi-New 2-CG
   NFREE  =      0    steps in history (QN), initial steepest desc. (CG)
   ISIF   =      2    stress and relaxation
   IWAVPR =     12    prediction:  0-non 1-charg 2-wave 3-comb
   ISYM   =      2    0-nonsym 1-usesym 2-fastsym
   LCORR  =      T    Harris-Foulkes like correction to forces

   POTIM  = 1.0000    time-step for ionic-motion
   TEIN   =  300.0    initial temperature
   TEBEG  =  300.0;   TEEND  = 300.0 temperature during run
   SMASS  =   0.03    Nose mass-parameter (am)
   estimated Nose-frequenzy (Omega)   =  0.16E+15 period in steps = 0.40E+02 mass=   0.106E-28a.u.
   SCALEE = 1.0000    scale energy and forces
   NPACO  =    256;   APACO  = 10.0  distance and # of slots for P.C.
   PSTRESS=    0.0 pullay stress

  Mass of Ions in am
   POMASS =  28.09 16.00
  Ionic Valenz
   ZVAL   =   4.00  6.00
  Atomic Wigner-Seitz radii
   RWIGS  =  -1.00 -1.00
  virtual crystal weights 
   VCA    =   1.00  1.00
   NELECT =     128.0000    total number of electrons
   NUPDOWN=      -1.0000    fix difference up-down

 DOS related values:
   EMIN   =  10.00;   EMAX   =-10.00  energy-range for DOS
   EFERMI =   0.00;   METHOD = LEGACY      
   ISMEAR =     1;   SIGMA  =   0.20  broadening in eV -4-tet -1-fermi 0-gaus
   EFERMI_NEDOS =   21; number of points for ismear=-14 and -15

 Electronic relaxation 2 (details)
   IALGO  =     68    algorithm
   LDIAG  =      T    sub-space diagonalisation (order eigenvalues)
   LSUBROT=      F    optimize rotation matrix (better conditioning)
   TURBO    =      0    0=normal 1=particle mesh
   IRESTART =      0    0=no restart 2=restart with 2 vectors
   NREBOOT  =      0    no. of reboots
   NMIN     =      0    reboot dimension
   EREF     =   0.00    reference energy to select bands
   IMIX   =      4    mixing-type and parameters
     AMIX     =   0.40;   BMIX     =  1.00
     AMIX_MAG =   1.60;   BMIX_MAG =  1.00
     AMIN     =   0.10
     WC   =   100.;   INIMIX=   1;  MIXPRE=   1;  MAXMIX= -45

 Intra band minimization:
   WEIMIN = 0.0010     energy-eigenvalue tresh-hold
   EBREAK =  0.32E-06  absolut break condition
   DEPER  =   0.30     relativ break condition  

   TIME   =   0.40     timestep for ELM

  volume/ion in A,a.u.               =      16.88       113.88
  Fermi-wavevector in a.u.,A,eV,Ry     =   1.115118  2.107267 16.918683  1.243488
  Thomas-Fermi vector in A             =   2.251720
 
 Write flags
   LWAVE        =      T    write WAVECAR
   LDOWNSAMPLE  =      F    k-point downsampling of WAVECAR
   LCHARG       =      T    write CHGCAR
   LVTOT        =      F    write LOCPOT, total local potential
   LVHAR        =      F    write LOCPOT, Hartree potential only
   WRT_POTENTIAL= false  ! write potential to hdf5 file
   LELF         =      F    write electronic localiz. function (ELF)
   LORBIT       =      0    0 simple, 1 ext, 2 COOP (PROOUT), +10 PAW based schemes


 Python interface
   PLUGINS active      =      F    recompile with -DPLUGINS to activate
 
 Dipole corrections
   LMONO      =      F    monopole corrections only (constant potential shift)
   LDIPOL     =      F    correct potential (dipole corrections)
   IDIPOL     =      0    1-x, 2-y, 3-z, 4-all directions 
   EPSILON    =  1.0000000 bulk dielectric constant
   LVACPOTAV  =      F  vacuum potentials using an averaging scheme for the charge density
   VACPOTFLAT =  0.1000000 required flatness to determine vacuum potential
 
Coulomb truncation method
  LTRUNCATE          =      F  Coulomb kernel truncation to be used
  IDIMENSIONALITY    =      3  Dimensionality of cutoff (0 molecules / 2 surfaces)
  ISURFACE           =     -1  Direction of surface normal
  LCOARSEN           =      F  Coarsen the charge grid before padding, preferred

 
 Exchange correlation treatment:
   GGA     = PE    functional components
   XC_C    = 1    coefficients multiplying the functional components
   LIBXC   =     F    Libxc                    
   VOSKOWN =     0    Vosko Wilk Nusair interpolation
   LHFCALC =     F    Hartree Fock is set to
   LHFONE  =     F    Hartree Fock one center treatment
   AEXX    =    0.0000 exact exchange contribution

 Parameters of functionals:
   PE:
     No parameter
 
 Van der Waals corrections
   IVDW    =     0    specifies the selected vdW correction

 Linear response parameters
   LEPSILON=     F    determine dielectric tensor
   LRPA    =     F    only Hartree local field effects (RPA)
   LNABLA  =     F    use nabla operator in PAW spheres
   LVEL    =     F    velocity operator in full k-point grid
   CSHIFT  =0.1000    complex shift for real part using Kramers Kronig
   OMEGAMAX=  -1.0    maximum frequency
   DEG_THRESHOLD= 0.2000000E-02 threshold for treating states as degnerate
   RTIME   =   -0.100 relaxation time in fs
  (WPLASMAI=    0.000 imaginary part of plasma frequency in eV, 0.658/RTIME)
   DFIELD  = 0.0000000 0.0000000 0.0000000 field for delta impulse in time
 
  Optional k-point grid parameters
   LKPOINTS_OPT  =     F    use optional k-point grid
   KPOINTS_OPT_MODE=     1    mode for optional k-point grid
 
 Orbital magnetization related:
   ORBITALMAG=     F  switch on orbital magnetization
   LCHIMAG   =     F  perturbation theory with respect to B field
   DQ        =  0.001000  dq finite difference perturbation B field
   LLRAUG    =     F  two centre corrections for induced B field
   LBONE     =     F  B-component reconstruction in AE one-centre
   LVGVCALC  =     T  calculate vGv susceptibility
   LVGVAPPL  =     F  apply vGv susceptibility instead of pGv for G=0

 Random number generation:
   RANDOM_GENERATOR = DEFAULT
   PCG_SEED         = not used


--------------------------------------------------------------------------------------------------------


 molecular dynamics for ions
   using nose mass (canonical ensemble)
 charge density and potential will be updated during run
 non-spin polarized calculation
 RMM-DIIS sequential band-by-band and
  variant of blocked Davidson during initial phase
 perform sub-space diagonalisation
    before iterative eigenvector-optimisation
 modified Broyden-mixing scheme, WC =      100.0
 initial mixing is a Kerker type mixing with AMIX =  0.4000 and BMIX =      1.0000
 Hartree-type preconditioning will be used
 using additional bands           13
 reciprocal scheme for non local part
 use partial core corrections
 calculate Harris-corrections to forces 
   (improved forces if not selfconsistent)
 use gradient corrections 
 use of overlap-Matrix (Vanderbilt PP)
 Methfessel and Paxton  Order N= 1 SIGMA  =   0.20


--------------------------------------------------------------------------------------------------------


  energy-cutoff  :      520.00
  volume of cell :      405.02
      direct lattice vectors                 reciprocal lattice vectors
     7.398732680  0.000000000  0.000000000     0.135158282 -0.000000000  0.000000000
     0.000000000  7.398732680  0.000000000     0.000000000  0.135158282  0.000000000
     0.000000000  0.000000000  7.398732680    -0.000000000 -0.000000000  0.135158282

  length of vectors
     7.398732680  7.398732680  7.398732680     0.135158282  0.135158282  0.135158282


 
 k-points in units of 2pi/SCALE and weight: Automatic mesh                          
   0.00000000  0.00000000  0.00000000       0.003
   0.01689479 -0.00000000  0.00000000       0.005
   0.03378957 -0.00000000  0.00000000       0.005
   0.05068436 -0.00000000  0.00000000       0.005
   0.06757914 -0.00000000  0.00000000       0.003
   0.00000000  0.01689479  0.00000000       0.005
   0.01689479  0.01689479  0.00000000       0.005
   0.03378957  0.01689479  0.00000000       0.005
   0.05068436  0.01689479  0.00000000       0.005
   0.06757914  0.01689479  0.00000000       0.005
  -0.05068436  0.01689479  0.00000000       0.005
  -0.03378957  0.01689479  0.00000000       0.005
  -0.01689479  0.01689479  0.00000000       0.005
   0.00000000  0.03378957  0.00000000       0.005
   0.01689479  0.03378957  0.00000000       0.005
   0.03378957  0.03378957  0.00000000       0.005
   0.05068436  0.03378957  0.00000000       0.005
   0.06757914  0.03378957  0.00000000       0.005
  -0.05068436  0.03378957  0.00000000       0.005
  -0.03378957  0.03378957  0.00000000       0.005
  -0.01689479  0.03378957  0.00000000       0.005
   0.00000000  0.05068436  0.00000000       0.005
   0.01689479  0.05068436  0.00000000       0.005
   0.03378957  0.05068436  0.00000000       0.005
   0.05068436  0.05068436  0.00000000       0.005
   0.06757914  0.05068436  0.00000000       0.005
  -0.05068436  0.05068436  0.00000000       0.005
  -0.03378957  0.05068436  0.00000000       0.005
  -0.01689479  0.05068436  0.00000000       0.005
   0.00000000  0.06757914  0.00000000       0.003
   0.01689479  0.06757914  0.00000000       0.005
   0.03378957  0.06757914  0.00000000       0.005
   0.05068436  0.06757914  0.00000000       0.005
   0.06757914  0.06757914  0.00000000       0.003
  -0.00000000 -0.00000000  0.02252638       0.005
   0.01689479 -0.00000000  0.02252638       0.005
   0.03378957 -0.00000000  0.02252638       0.005
   0.05068436 -0.00000000  0.02252638       0.005
   0.06757914 -0.00000000  0.02252638       0.005
  -0.05068436  0.00000000  0.02252638       0.005
  -0.03378957  0.00000000  0.02252638       0.005
  -0.01689479  0.00000000  0.02252638       0.005
  -0.00000000  0.01689479  0.02252638       0.005
   0.01689479  0.01689479  0.02252638       0.005
   0.03378957  0.01689479  0.02252638       0.005
   0.05068436  0.01689479  0.02252638       0.005
   0.06757914  0.01689479  0.02252638       0.005
  -0.05068436  0.01689479  0.02252638       0.005
  -0.03378957  0.01689479  0.02252638       0.005
  -0.01689479  0.01689479  0.02252638       0.005
  -0.00000000  0.03378957  0.02252638       0.005
   0.01689479  0.03378957  0.02252638       0.005
   0.03378957  0.03378957  0.02252638       0.005
   0.05068436  0.03378957  0.02252638       0.005
   0.06757914  0.03378957  0.02252638       0.005
  -0.05068436  0.03378957  0.02252638       0.005
  -0.03378957  0.03378957  0.02252638       0.005
  -0.01689479  0.03378957  0.02252638       0.005
  -0.00000000  0.05068436  0.02252638       0.005
   0.01689479  0.05068436  0.02252638       0.005
   0.03378957  0.05068436  0.02252638       0.005
   0.05068436  0.05068436  0.02252638       0.005
   0.06757914  0.05068436  0.02252638       0.005
  -0.05068436  0.05068436  0.02252638       0.005
  -0.03378957  0.05068436  0.02252638       0.005
  -0.01689479  0.05068436  0.02252638       0.005
  -0.00000000  0.06757914  0.02252638       0.005
   0.01689479  0.06757914  0.02252638       0.005
   0.03378957  0.06757914  0.02252638       0.005
   0.05068436  0.06757914  0.02252638       0.005
   0.06757914  0.06757914  0.02252638       0.005
  -0.05068436  0.06757914  0.02252638       0.005
  -0.03378957  0.06757914  0.02252638       0.005
  -0.01689479  0.06757914  0.02252638       0.005
  -0.00000000 -0.05068436  0.02252638       0.005
   0.01689479 -0.05068436  0.02252638       0.005
   0.03378957 -0.05068436  0.02252638       0.005
   0.05068436 -0.05068436  0.02252638       0.005
   0.06757914 -0.05068436  0.02252638       0.005
  -0.05068436 -0.05068436  0.02252638       0.005
  -0.03378957 -0.05068436  0.02252638       0.005
  -0.01689479 -0.05068436  0.02252638       0.005
  -0.00000000 -0.03378957  0.02252638       0.005
   0.01689479 -0.03378957  0.02252638       0.005
   0.03378957 -0.03378957  0.02252638       0.005
   0.05068436 -0.03378957  0.02252638       0.005
   0.06757914 -0.03378957  0.02252638       0.005
  -0.05068436 -0.03378957  0.02252638       0.005
  -0.03378957 -0.03378957  0.02252638       0.005
  -0.01689479 -0.03378957  0.02252638       0.005
  -0.00000000 -0.01689479  0.02252638       0.005
   0.01689479 -0.01689479  0.02252638       0.005
   0.03378957 -0.01689479  0.02252638       0.005
   0.05068436 -0.01689479  0.02252638       0.005
   0.06757914 -0.01689479  0.02252638       0.005
  -0.05068436 -0.01689479  0.02252638       0.005
  -0.03378957 -0.01689479  0.02252638       0.005
  -0.01689479 -0.01689479  0.02252638       0.005
  -0.00000000 -0.00000000  0.04505276       0.005
   0.01689479 -0.00000000  0.04505276       0.005
   0.03378957 -0.00000000  0.04505276       0.005
   0.05068436 -0.00000000  0.04505276       0.005
   0.06757914 -0.00000000  0.04505276       0.005
  -0.05068436  0.00000000  0.04505276       0.005
  -0.03378957  0.00000000  0.04505276       0.005
  -0.01689479 -0.00000000  0.04505276       0.005
  -0.00000000  0.01689479  0.04505276       0.005
   0.01689479  0.01689479  0.04505276       0.005
   0.03378957  0.01689479  0.04505276       0.005
   0.05068436  0.01689479  0.04505276       0.005
   0.06757914  0.01689479  0.04505276       0.005
  -0.05068436  0.01689479  0.04505276       0.005
  -0.03378957  0.01689479  0.04505276       0.005
  -0.01689479  0.01689479  0.04505276       0.005
  -0.00000000  0.03378957  0.04505276       0.005
   0.01689479  0.03378957  0.04505276       0.005
   0.03378957  0.03378957  0.04505276       0.005
   0.05068436  0.03378957  0.04505276       0.005
   0.06757914  0.03378957  0.04505276       0.005
  -0.05068436  0.03378957  0.04505276       0.005
  -0.03378957  0.03378957  0.04505276       0.005
  -0.01689479  0.03378957  0.04505276       0.005
  -0.00000000  0.05068436  0.04505276       0.005
   0.01689479  0.05068436  0.04505276       0.005
   0.03378957  0.05068436  0.04505276       0.005
   0.05068436  0.05068436  0.04505276       0.005
   0.06757914  0.05068436  0.04505276       0.005
  -0.05068436  0.05068436  0.04505276       0.005
  -0.03378957  0.05068436  0.04505276       0.005
  -0.01689479  0.05068436  0.04505276       0.005
  -0.00000000  0.06757914  0.04505276       0.005
   0.01689479  0.06757914  0.04505276       0.005
   0.03378957  0.06757914  0.04505276       0.005
   0.05068436  0.06757914  0.04505276       0.005
   0.06757914  0.06757914  0.04505276       0.005
  -0.05068436  0.06757914  0.04505276       0.005
  -0.03378957  0.06757914  0.04505276       0.005
  -0.01689479  0.06757914  0.04505276       0.005
  -0.00000000 -0.05068436  0.04505276       0.005
   0.01689479 -0.05068436  0.04505276       0.005
   0.03378957 -0.05068436  0.04505276       0.005
   0.05068436 -0.05068436  0.04505276       0.005
   0.06757914 -0.05068436  0.04505276       0.005
  -0.05068436 -0.05068436  0.04505276       0.005
  -0.03378957 -0.05068436  0.04505276       0.005
  -0.01689479 -0.05068436  0.04505276       0.005
  -0.00000000 -0.03378957  0.04505276       0.005
   0.01689479 -0.03378957  0.04505276       0.005
   0.03378957 -0.03378957  0.04505276       0.005
   0.05068436 -0.03378957  0.04505276       0.005
   0.06757914 -0.03378957  0.04505276       0.005
  -0.05068436 -0.03378957  0.04505276       0.005
  -0.03378957 -0.03378957  0.04505276       0.005
  -0.01689479 -0.03378957  0.04505276       0.005
  -0.00000000 -0.01689479  0.04505276       0.005
   0.01689479 -0.01689479  0.04505276       0.005
   0.03378957 -0.01689479  0.04505276       0.005
   0.05068436 -0.01689479  0.04505276       0.005
   0.06757914 -0.01689479  0.04505276       0.005
  -0.05068436 -0.01689479  0.04505276       0.005
  -0.03378957 -0.01689479  0.04505276       0.005
  -0.01689479 -0.01689479  0.04505276       0.005
  -0.00000000 -0.00000000  0.06757914       0.003
   0.01689479 -0.00000000  0.06757914       0.005
   0.03378957 -0.00000000  0.06757914       0.005
   0.05068436 -0.00000000  0.06757914       0.005
   0.06757914 -0.00000000  0.06757914       0.003
  -0.00000000  0.01689479  0.06757914       0.005
   0.01689479  0.01689479  0.06757914       0.005
   0.03378957  0.01689479  0.06757914       0.005
   0.05068436  0.01689479  0.06757914       0.005
   0.06757914  0.01689479  0.06757914       0.005
  -0.05068436  0.01689479  0.06757914       0.005
  -0.03378957  0.01689479  0.06757914       0.005
  -0.01689479  0.01689479  0.06757914       0.005
  -0.00000000  0.03378957  0.06757914       0.005
   0.01689479  0.03378957  0.06757914       0.005
   0.03378957  0.03378957  0.06757914       0.005
   0.05068436  0.03378957  0.06757914       0.005
   0.06757914  0.03378957  0.06757914       0.005
  -0.05068436  0.03378957  0.06757914       0.005
  -0.03378957  0.03378957  0.06757914       0.005
  -0.01689479  0.03378957  0.06757914       0.005
  -0.00000000  0.05068436  0.06757914       0.005
   0.01689479  0.05068436  0.06757914       0.005
   0.03378957  0.05068436  0.06757914       0.005
   0.05068436  0.05068436  0.06757914       0.005
   0.06757914  0.05068436  0.06757914       0.005
  -0.05068436  0.05068436  0.06757914       0.005
  -0.03378957  0.05068436  0.06757914       0.005
  -0.01689479  0.05068436  0.06757914       0.005
  -0.00000000  0.06757914  0.06757914       0.003
   0.01689479  0.06757914  0.06757914       0.005
   0.03378957  0.06757914  0.06757914       0.005
   0.05068436  0.06757914  0.06757914       0.005
   0.06757914  0.06757914  0.06757914       0.003
 
 k-points in reciprocal lattice and weights: Automatic mesh                          
   0.00000000  0.00000000  0.00000000       0.003
   0.12500000  0.00000000  0.00000000       0.005
   0.25000000  0.00000000  0.00000000       0.005
   0.37500000 -0.00000000  0.00000000       0.005
   0.50000000  0.00000000  0.00000000       0.003
   0.00000000  0.12500000  0.00000000       0.005
   0.12500000  0.12500000  0.00000000       0.005
   0.25000000  0.12500000  0.00000000       0.005
   0.37500000  0.12500000  0.00000000       0.005
   0.50000000  0.12500000  0.00000000       0.005
  -0.37500000  0.12500000  0.00000000       0.005
  -0.25000000  0.12500000  0.00000000       0.005
  -0.12500000  0.12500000  0.00000000       0.005
   0.00000000  0.25000000  0.00000000       0.005
   0.12500000  0.25000000  0.00000000       0.005
   0.25000000  0.25000000  0.00000000       0.005
   0.37500000  0.25000000  0.00000000       0.005
   0.50000000  0.25000000  0.00000000       0.005
  -0.37500000  0.25000000  0.00000000       0.005
  -0.25000000  0.25000000  0.00000000       0.005
  -0.12500000  0.25000000  0.00000000       0.005
   0.00000000  0.37500000  0.00000000       0.005
   0.12500000  0.37500000  0.00000000       0.005
   0.25000000  0.37500000  0.00000000       0.005
   0.37500000  0.37500000  0.00000000       0.005
   0.50000000  0.37500000  0.00000000       0.005
  -0.37500000  0.37500000  0.00000000       0.005
  -0.25000000  0.37500000  0.00000000       0.005
  -0.12500000  0.37500000  0.00000000       0.005
   0.00000000  0.50000000  0.00000000       0.003
   0.12500000  0.50000000  0.00000000       0.005
   0.25000000  0.50000000  0.00000000       0.005
   0.37500000  0.50000000  0.00000000       0.005
   0.50000000  0.50000000  0.00000000       0.003
   0.00000000  0.00000000  0.16666667       0.005
   0.12500000  0.00000000  0.16666667       0.005
   0.25000000  0.00000000  0.16666667       0.005
   0.37500000 -0.00000000  0.16666667       0.005
   0.50000000  0.00000000  0.16666667       0.005
  -0.37500000  0.00000000  0.16666667       0.005
  -0.25000000  0.00000000  0.16666667       0.005
  -0.12500000  0.00000000  0.16666667       0.005
   0.00000000  0.12500000  0.16666667       0.005
   0.12500000  0.12500000  0.16666667       0.005
   0.25000000  0.12500000  0.16666667       0.005
   0.37500000  0.12500000  0.16666667       0.005
   0.50000000  0.12500000  0.16666667       0.005
  -0.37500000  0.12500000  0.16666667       0.005
  -0.25000000  0.12500000  0.16666667       0.005
  -0.12500000  0.12500000  0.16666667       0.005
   0.00000000  0.25000000  0.16666667       0.005
   0.12500000  0.25000000  0.16666667       0.005
   0.25000000  0.25000000  0.16666667       0.005
   0.37500000  0.25000000  0.16666667       0.005
   0.50000000  0.25000000  0.16666667       0.005
  -0.37500000  0.25000000  0.16666667       0.005
  -0.25000000  0.25000000  0.16666667       0.005
  -0.12500000  0.25000000  0.16666667       0.005
   0.00000000  0.37500000  0.16666667       0.005
   0.12500000  0.37500000  0.16666667       0.005
   0.25000000  0.37500000  0.16666667       0.005
   0.37500000  0.37500000  0.16666667       0.005
   0.50000000  0.37500000  0.16666667       0.005
  -0.37500000  0.37500000  0.16666667       0.005
  -0.25000000  0.37500000  0.16666667       0.005
  -0.12500000  0.37500000  0.16666667       0.005
   0.00000000  0.50000000  0.16666667       0.005
   0.12500000  0.50000000  0.16666667       0.005
   0.25000000  0.50000000  0.16666667       0.005
   0.37500000  0.50000000  0.16666667       0.005
   0.50000000  0.50000000  0.16666667       0.005
  -0.37500000  0.50000000  0.16666667       0.005
  -0.25000000  0.50000000  0.16666667       0.005
  -0.12500000  0.50000000  0.16666667       0.005
   0.00000000 -0.37500000  0.16666667       0.005
   0.12500000 -0.37500000  0.16666667       0.005
   0.25000000 -0.37500000  0.16666667       0.005
   0.37500000 -0.37500000  0.16666667       0.005
   0.50000000 -0.37500000  0.16666667       0.005
  -0.37500000 -0.37500000  0.16666667       0.005
  -0.25000000 -0.37500000  0.16666667       0.005
  -0.12500000 -0.37500000  0.16666667       0.005
   0.00000000 -0.25000000  0.16666667       0.005
   0.12500000 -0.25000000  0.16666667       0.005
   0.25000000 -0.25000000  0.16666667       0.005
   0.37500000 -0.25000000  0.16666667       0.005
   0.50000000 -0.25000000  0.16666667       0.005
  -0.37500000 -0.25000000  0.16666667       0.005
  -0.25000000 -0.25000000  0.16666667       0.005
  -0.12500000 -0.25000000  0.16666667       0.005
   0.00000000 -0.12500000  0.16666667       0.005
   0.12500000 -0.12500000  0.16666667       0.005
   0.25000000 -0.12500000  0.16666667       0.005
   0.37500000 -0.12500000  0.16666667       0.005
   0.50000000 -0.12500000  0.16666667       0.005
  -0.37500000 -0.12500000  0.16666667       0.005
  -0.25000000 -0.12500000  0.16666667       0.005
  -0.12500000 -0.12500000  0.16666667       0.005
   0.00000000  0.00000000  0.33333333       0.005
   0.12500000  0.00000000  0.33333333       0.005
   0.25000000  0.00000000  0.33333333       0.005
   0.37500000 -0.00000000  0.33333333       0.005
   0.50000000  0.00000000  0.33333333       0.005
  -0.37500000  0.00000000  0.33333333       0.005
  -0.25000000  0.00000000  0.33333333       0.005
  -0.12500000  0.00000000  0.33333333       0.005
   0.00000000  0.12500000  0.33333333       0.005
   0.12500000  0.12500000  0.33333333       0.005
   0.25000000  0.12500000  0.33333333       0.005
   0.37500000  0.12500000  0.33333333       0.005
   0.50000000  0.12500000  0.33333333       0.005
  -0.37500000  0.12500000  0.33333333       0.005
  -0.25000000  0.12500000  0.33333333       0.005
  -0.12500000  0.12500000  0.33333333       0.005
   0.00000000  0.25000000  0.33333333       0.005
   0.12500000  0.25000000  0.33333333       0.005
   0.25000000  0.25000000  0.33333333       0.005
   0.37500000  0.25000000  0.33333333       0.005
   0.50000000  0.25000000  0.33333333       0.005
  -0.37500000  0.25000000  0.33333333       0.005
  -0.25000000  0.25000000  0.33333333       0.005
  -0.12500000  0.25000000  0.33333333       0.005
   0.00000000  0.37500000  0.33333333       0.005
   0.12500000  0.37500000  0.33333333       0.005
   0.25000000  0.37500000  0.33333333       0.005
   0.37500000  0.37500000  0.33333333       0.005
   0.50000000  0.37500000  0.33333333       0.005
  -0.37500000  0.37500000  0.33333333       0.005
  -0.25000000  0.37500000  0.33333333       0.005
  -0.12500000  0.37500000  0.33333333       0.005
   0.00000000  0.50000000  0.33333333       0.005
   0.12500000  0.50000000  0.33333333       0.005
   0.25000000  0.50000000  0.33333333       0.005
   0.37500000  0.50000000  0.33333333       0.005
   0.50000000  0.50000000  0.33333333       0.005
  -0.37500000  0.50000000  0.33333333       0.005
  -0.25000000  0.50000000  0.33333333       0.005
  -0.12500000  0.50000000  0.33333333       0.005
   0.00000000 -0.37500000  0.33333333       0.005
   0.12500000 -0.37500000  0.33333333       0.005
   0.25000000 -0.37500000  0.33333333       0.005
   0.37500000 -0.37500000  0.33333333       0.005
   0.50000000 -0.37500000  0.33333333       0.005
  -0.37500000 -0.37500000  0.33333333       0.005
  -0.25000000 -0.37500000  0.33333333       0.005
  -0.12500000 -0.37500000  0.33333333       0.005
   0.00000000 -0.25000000  0.33333333       0.005
   0.12500000 -0.25000000  0.33333333       0.005
   0.25000000 -0.25000000  0.33333333       0.005
   0.37500000 -0.25000000  0.33333333       0.005
   0.50000000 -0.25000000  0.33333333       0.005
  -0.37500000 -0.25000000  0.33333333       0.005
  -0.25000000 -0.25000000  0.33333333       0.005
  -0.12500000 -0.25000000  0.33333333       0.005
   0.00000000 -0.12500000  0.33333333       0.005
   0.12500000 -0.12500000  0.33333333       0.005
   0.25000000 -0.12500000  0.33333333       0.005
   0.37500000 -0.12500000  0.33333333       0.005
   0.50000000 -0.12500000  0.33333333       0.005
  -0.37500000 -0.12500000  0.33333333       0.005
  -0.25000000 -0.12500000  0.33333333       0.005
  -0.12500000 -0.12500000  0.33333333       0.005
   0.00000000  0.00000000  0.50000000       0.003
   0.12500000  0.00000000  0.50000000       0.005
   0.25000000 -0.00000000  0.50000000       0.005
   0.37500000 -0.00000000  0.50000000       0.005
   0.50000000  0.00000000  0.50000000       0.003
   0.00000000  0.12500000  0.50000000       0.005
   0.12500000  0.12500000  0.50000000       0.005
   0.25000000  0.12500000  0.50000000       0.005
   0.37500000  0.12500000  0.50000000       0.005
   0.50000000  0.12500000  0.50000000       0.005
  -0.37500000  0.12500000  0.50000000       0.005
  -0.25000000  0.12500000  0.50000000       0.005
  -0.12500000  0.12500000  0.50000000       0.005
   0.00000000  0.25000000  0.50000000       0.005
   0.12500000  0.25000000  0.50000000       0.005
   0.25000000  0.25000000  0.50000000       0.005
   0.37500000  0.25000000  0.50000000       0.005
   0.50000000  0.25000000  0.50000000       0.005
  -0.37500000  0.25000000  0.50000000       0.005
  -0.25000000  0.25000000  0.50000000       0.005
  -0.12500000  0.25000000  0.50000000       0.005
   0.00000000  0.37500000  0.50000000       0.005
   0.12500000  0.37500000  0.50000000       0.005
   0.25000000  0.37500000  0.50000000       0.005
   0.37500000  0.37500000  0.50000000       0.005
   0.50000000  0.37500000  0.50000000       0.005
  -0.37500000  0.37500000  0.50000000       0.005
  -0.25000000  0.37500000  0.50000000       0.005
  -0.12500000  0.37500000  0.50000000       0.005
   0.00000000  0.50000000  0.50000000       0.003
   0.12500000  0.50000000  0.50000000       0.005
   0.25000000  0.50000000  0.50000000       0.005
   0.37500000  0.50000000  0.50000000       0.005
   0.50000000  0.50000000  0.50000000       0.003
 
 position of ions in fractional coordinates (direct lattice) 
   0.25000000  0.25000000  0.25000000
   0.50000000  0.00000000  0.50000000
   0.25000000  0.75000000  0.75000000
   0.50000000  0.50000000  0.00000000
   0.75000000  0.25000000  0.75000000
   0.00000000  0.00000000  0.00000000
   0.75000000  0.75000000  0.25000000
   0.00000000  0.50000000  0.50000000
   0.87500000  0.87500000  0.12500000
   0.37500000  0.12500000  0.37500000
   0.12500000  0.12500000  0.12500000
   0.62500000  0.87500000  0.37500000
   0.87500000  0.37500000  0.62500000
   0.37500000  0.62500000  0.87500000
   0.12500000  0.62500000  0.62500000
   0.62500000  0.37500000  0.87500000
   0.37500000  0.87500000  0.62500000
   0.87500000  0.12500000  0.87500000
   0.62500000  0.12500000  0.62500000
   0.12500000  0.87500000  0.87500000
   0.37500000  0.37500000  0.12500000
   0.87500000  0.62500000  0.37500000
   0.62500000  0.62500000  0.12500000
   0.12500000  0.37500000  0.37500000
 
 position of ions in cartesian coordinates  (Angst):
   1.84968317  1.84968317  1.84968317
   3.69936634  0.00000000  3.69936634
   1.84968317  5.54904951  5.54904951
   3.69936634  3.69936634  0.00000000
   5.54904951  1.84968317  5.54904951
   0.00000000  0.00000000  0.00000000
   5.54904951  5.54904951  1.84968317
   0.00000000  3.69936634  3.69936634
   6.47389109  6.47389109  0.92484159
   2.77452475  0.92484158  2.77452476
   0.92484159  0.92484158  0.92484159
   4.62420793  6.47389109  2.77452476
   6.47389109  2.77452475  4.62420793
   2.77452476  4.62420792  6.47389109
   0.92484159  4.62420792  4.62420792
   4.62420793  2.77452475  6.47389109
   2.77452476  6.47389109  4.62420793
   6.47389109  0.92484158  6.47389109
   4.62420792  0.92484158  4.62420792
   0.92484159  6.47389109  6.47389109
   2.77452476  2.77452475  0.92484159
   6.47389109  4.62420792  2.77452476
   4.62420793  4.62420792  0.92484159
   0.92484159  2.77452475  2.77452476
 


--------------------------------------------------------------------------------------------------------


 k-point     1 :   0.0000 0.0000 0.0000  plane waves:   11019
 k-point     2 :   0.1250 0.0000 0.0000  plane waves:   10919
 k-point     3 :   0.2500 0.0000 0.0000  plane waves:   10896
 k-point     4 :   0.3750-0.0000 0.0000  plane waves:   10928
 k-point     5 :   0.5000 0.0000 0.0000  plane waves:   10852
 k-point     6 :   0.0000 0.1250 0.0000  plane waves:   10919
 k-point     7 :   0.1250 0.1250 0.0000  plane waves:   10901
 k-point     8 :   0.2500 0.1250 0.0000  plane waves:   10913
 k-point     9 :   0.3750 0.1250 0.0000  plane waves:   10920
 k-point    10 :   0.5000 0.1250 0.0000  plane waves:   10864
 k-point    11 :  -0.3750 0.1250 0.0000  plane waves:   10920
 k-point    12 :  -0.2500 0.1250 0.0000  plane waves:   10913
 k-point    13 :  -0.1250 0.1250 0.0000  plane waves:   10901
 k-point    14 :   0.0000 0.2500 0.0000  plane waves:   10896
 k-point    15 :   0.1250 0.2500 0.0000  plane waves:   10913
 k-point    16 :   0.2500 0.2500 0.0000  plane waves:   10909
 k-point    17 :   0.3750 0.2500 0.0000  plane waves:   10896
 k-point    18 :   0.5000 0.2500 0.0000  plane waves:   10878
 k-point    19 :  -0.3750 0.2500 0.0000  plane waves:   10896
 k-point    20 :  -0.2500 0.2500 0.0000  plane waves:   10909
 k-point    21 :  -0.1250 0.2500 0.0000  plane waves:   10913
 k-point    22 :   0.0000 0.3750 0.0000  plane waves:   10928
 k-point    23 :   0.1250 0.3750 0.0000  plane waves:   10920
 k-point    24 :   0.2500 0.3750 0.0000  plane waves:   10896
 k-point    25 :   0.3750 0.3750 0.0000  plane waves:   10882
 k-point    26 :   0.5000 0.3750 0.0000  plane waves:   10904
 k-point    27 :  -0.3750 0.3750 0.0000  plane waves:   10882
 k-point    28 :  -0.2500 0.3750 0.0000  plane waves:   10896
 k-point    29 :  -0.1250 0.3750 0.0000  plane waves:   10920
 k-point    30 :   0.0000 0.5000 0.0000  plane waves:   10852
 k-point    31 :   0.1250 0.5000 0.0000  plane waves:   10864
 k-point    32 :   0.2500 0.5000 0.0000  plane waves:   10878
 k-point    33 :   0.3750 0.5000 0.0000  plane waves:   10904
 k-point    34 :   0.5000 0.5000 0.0000  plane waves:   10880
 k-point    35 :   0.0000 0.0000 0.1667  plane waves:   10911
 k-point    36 :   0.1250 0.0000 0.1667  plane waves:   10907
 k-point    37 :   0.2500 0.0000 0.1667  plane waves:   10905
 k-point    38 :   0.3750-0.0000 0.1667  plane waves:   10900
 k-point    39 :   0.5000 0.0000 0.1667  plane waves:   10872
 k-point    40 :  -0.3750 0.0000 0.1667  plane waves:   10900
 k-point    41 :  -0.2500 0.0000 0.1667  plane waves:   10905
 k-point    42 :  -0.1250 0.0000 0.1667  plane waves:   10907
 k-point    43 :   0.0000 0.1250 0.1667  plane waves:   10907
 k-point    44 :   0.1250 0.1250 0.1667  plane waves:   10908
 k-point    45 :   0.2500 0.1250 0.1667  plane waves:   10902
 k-point    46 :   0.3750 0.1250 0.1667  plane waves:   10909
 k-point    47 :   0.5000 0.1250 0.1667  plane waves:   10902
 k-point    48 :  -0.3750 0.1250 0.1667  plane waves:   10909
 k-point    49 :  -0.2500 0.1250 0.1667  plane waves:   10902
 k-point    50 :  -0.1250 0.1250 0.1667  plane waves:   10908
 k-point    51 :   0.0000 0.2500 0.1667  plane waves:   10905
 k-point    52 :   0.1250 0.2500 0.1667  plane waves:   10902
 k-point    53 :   0.2500 0.2500 0.1667  plane waves:   10892
 k-point    54 :   0.3750 0.2500 0.1667  plane waves:   10897
 k-point    55 :   0.5000 0.2500 0.1667  plane waves:   10898
 k-point    56 :  -0.3750 0.2500 0.1667  plane waves:   10897
 k-point    57 :  -0.2500 0.2500 0.1667  plane waves:   10892
 k-point    58 :  -0.1250 0.2500 0.1667  plane waves:   10902
 k-point    59 :   0.0000 0.3750 0.1667  plane waves:   10900
 k-point    60 :   0.1250 0.3750 0.1667  plane waves:   10909
 k-point    61 :   0.2500 0.3750 0.1667  plane waves:   10897
 k-point    62 :   0.3750 0.3750 0.1667  plane waves:   10910
 k-point    63 :   0.5000 0.3750 0.1667  plane waves:   10910
 k-point    64 :  -0.3750 0.3750 0.1667  plane waves:   10910
 k-point    65 :  -0.2500 0.3750 0.1667  plane waves:   10897
 k-point    66 :  -0.1250 0.3750 0.1667  plane waves:   10909
 k-point    67 :   0.0000 0.5000 0.1667  plane waves:   10872
 k-point    68 :   0.1250 0.5000 0.1667  plane waves:   10902
 k-point    69 :   0.2500 0.5000 0.1667  plane waves:   10898
 k-point    70 :   0.3750 0.5000 0.1667  plane waves:   10910
 k-point    71 :   0.5000 0.5000 0.1667  plane waves:   10928
 k-point    72 :  -0.3750 0.5000 0.1667  plane waves:   10910
 k-point    73 :  -0.2500 0.5000 0.1667  plane waves:   10898
 k-point    74 :  -0.1250 0.5000 0.1667  plane waves:   10902
 k-point    75 :   0.0000-0.3750 0.1667  plane waves:   10900
 k-point    76 :   0.1250-0.3750 0.1667  plane waves:   10909
 k-point    77 :   0.2500-0.3750 0.1667  plane waves:   10897
 k-point    78 :   0.3750-0.3750 0.1667  plane waves:   10910
 k-point    79 :   0.5000-0.3750 0.1667  plane waves:   10910
 k-point    80 :  -0.3750-0.3750 0.1667  plane waves:   10910
 k-point    81 :  -0.2500-0.3750 0.1667  plane waves:   10897
 k-point    82 :  -0.1250-0.3750 0.1667  plane waves:   10909
 k-point    83 :   0.0000-0.2500 0.1667  plane waves:   10905
 k-point    84 :   0.1250-0.2500 0.1667  plane waves:   10902
 k-point    85 :   0.2500-0.2500 0.1667  plane waves:   10892
 k-point    86 :   0.3750-0.2500 0.1667  plane waves:   10897
 k-point    87 :   0.5000-0.2500 0.1667  plane waves:   10898
 k-point    88 :  -0.3750-0.2500 0.1667  plane waves:   10897
 k-point    89 :  -0.2500-0.2500 0.1667  plane waves:   10892
 k-point    90 :  -0.1250-0.2500 0.1667  plane waves:   10902
 k-point    91 :   0.0000-0.1250 0.1667  plane waves:   10907
 k-point    92 :   0.1250-0.1250 0.1667  plane waves:   10908
 k-point    93 :   0.2500-0.1250 0.1667  plane waves:   10902
 k-point    94 :   0.3750-0.1250 0.1667  plane waves:   10909
 k-point    95 :   0.5000-0.1250 0.1667  plane waves:   10902
 k-point    96 :  -0.3750-0.1250 0.1667  plane waves:   10909
 k-point    97 :  -0.2500-0.1250 0.1667  plane waves:   10902
 k-point    98 :  -0.1250-0.1250 0.1667  plane waves:   10908
 k-point    99 :   0.0000 0.0000 0.3333  plane waves:   10936
 k-point   100 :   0.1250 0.0000 0.3333  plane waves:   10919
 k-point   101 :   0.2500 0.0000 0.3333  plane waves:   10903
 k-point   102 :   0.3750-0.0000 0.3333  plane waves:   10898
 k-point   103 :   0.5000 0.0000 0.3333  plane waves:   10898
 k-point   104 :  -0.3750 0.0000 0.3333  plane waves:   10898
 k-point   105 :  -0.2500 0.0000 0.3333  plane waves:   10903
 k-point   106 :  -0.1250 0.0000 0.3333  plane waves:   10919
 k-point   107 :   0.0000 0.1250 0.3333  plane waves:   10919
 k-point   108 :   0.1250 0.1250 0.3333  plane waves:   10918
 k-point   109 :   0.2500 0.1250 0.3333  plane waves:   10889
 k-point   110 :   0.3750 0.1250 0.3333  plane waves:   10894
 k-point   111 :   0.5000 0.1250 0.3333  plane waves:   10904
 k-point   112 :  -0.3750 0.1250 0.3333  plane waves:   10894
 k-point   113 :  -0.2500 0.1250 0.3333  plane waves:   10889
 k-point   114 :  -0.1250 0.1250 0.3333  plane waves:   10918
 k-point   115 :   0.0000 0.2500 0.3333  plane waves:   10903
 k-point   116 :   0.1250 0.2500 0.3333  plane waves:   10889
 k-point   117 :   0.2500 0.2500 0.3333  plane waves:   10906
 k-point   118 :   0.3750 0.2500 0.3333  plane waves:   10910
 k-point   119 :   0.5000 0.2500 0.3333  plane waves:   10908
 k-point   120 :  -0.3750 0.2500 0.3333  plane waves:   10910
 k-point   121 :  -0.2500 0.2500 0.3333  plane waves:   10906
 k-point   122 :  -0.1250 0.2500 0.3333  plane waves:   10889
 k-point   123 :   0.0000 0.3750 0.3333  plane waves:   10898
 k-point   124 :   0.1250 0.3750 0.3333  plane waves:   10894
 k-point   125 :   0.2500 0.3750 0.3333  plane waves:   10910
 k-point   126 :   0.3750 0.3750 0.3333  plane waves:   10929
 k-point   127 :   0.5000 0.3750 0.3333  plane waves:   10918
 k-point   128 :  -0.3750 0.3750 0.3333  plane waves:   10929
 k-point   129 :  -0.2500 0.3750 0.3333  plane waves:   10910
 k-point   130 :  -0.1250 0.3750 0.3333  plane waves:   10894
 k-point   131 :   0.0000 0.5000 0.3333  plane waves:   10898
 k-point   132 :   0.1250 0.5000 0.3333  plane waves:   10904
 k-point   133 :   0.2500 0.5000 0.3333  plane waves:   10908
 k-point   134 :   0.3750 0.5000 0.3333  plane waves:   10918
 k-point   135 :   0.5000 0.5000 0.3333  plane waves:   10904
 k-point   136 :  -0.3750 0.5000 0.3333  plane waves:   10918
 k-point   137 :  -0.2500 0.5000 0.3333  plane waves:   10908
 k-point   138 :  -0.1250 0.5000 0.3333  plane waves:   10904
 k-point   139 :   0.0000-0.3750 0.3333  plane waves:   10898
 k-point   140 :   0.1250-0.3750 0.3333  plane waves:   10894
 k-point   141 :   0.2500-0.3750 0.3333  plane waves:   10910
 k-point   142 :   0.3750-0.3750 0.3333  plane waves:   10929
 k-point   143 :   0.5000-0.3750 0.3333  plane waves:   10918
 k-point   144 :  -0.3750-0.3750 0.3333  plane waves:   10929
 k-point   145 :  -0.2500-0.3750 0.3333  plane waves:   10910
 k-point   146 :  -0.1250-0.3750 0.3333  plane waves:   10894
 k-point   147 :   0.0000-0.2500 0.3333  plane waves:   10903
 k-point   148 :   0.1250-0.2500 0.3333  plane waves:   10889
 k-point   149 :   0.2500-0.2500 0.3333  plane waves:   10906
 k-point   150 :   0.3750-0.2500 0.3333  plane waves:   10910
 k-point   151 :   0.5000-0.2500 0.3333  plane waves:   10908
 k-point   152 :  -0.3750-0.2500 0.3333  plane waves:   10910
 k-point   153 :  -0.2500-0.2500 0.3333  plane waves:   10906
 k-point   154 :  -0.1250-0.2500 0.3333  plane waves:   10889
 k-point   155 :   0.0000-0.1250 0.3333  plane waves:   10919
 k-point   156 :   0.1250-0.1250 0.3333  plane waves:   10918
 k-point   157 :   0.2500-0.1250 0.3333  plane waves:   10889
 k-point   158 :   0.3750-0.1250 0.3333  plane waves:   10894
 k-point   159 :   0.5000-0.1250 0.3333  plane waves:   10904
 k-point   160 :  -0.3750-0.1250 0.3333  plane waves:   10894
 k-point   161 :  -0.2500-0.1250 0.3333  plane waves:   10889
 k-point   162 :  -0.1250-0.1250 0.3333  plane waves:   10918
 k-point   163 :   0.0000 0.0000 0.5000  plane waves:   10852
 k-point   164 :   0.1250 0.0000 0.5000  plane waves:   10864
 k-point   165 :   0.2500-0.0000 0.5000  plane waves:   10878
 k-point   166 :   0.3750-0.0000 0.5000  plane waves:   10904
 k-point   167 :   0.5000 0.0000 0.5000  plane waves:   10880
 k-point   168 :   0.0000 0.1250 0.5000  plane waves:   10864
 k-point   169 :   0.1250 0.1250 0.5000  plane waves:   10894
 k-point   170 :   0.2500 0.1250 0.5000  plane waves:   10906
 k-point   171 :   0.3750 0.1250 0.5000  plane waves:   10910
 k-point   172 :   0.5000 0.1250 0.5000  plane waves:   10868
 k-point   173 :  -0.3750 0.1250 0.5000  plane waves:   10910
 k-point   174 :  -0.2500 0.1250 0.5000  plane waves:   10906
 k-point   175 :  -0.1250 0.1250 0.5000  plane waves:   10894
 k-point   176 :   0.0000 0.2500 0.5000  plane waves:   10878
 k-point   177 :   0.1250 0.2500 0.5000  plane waves:   10906
 k-point   178 :   0.2500 0.2500 0.5000  plane waves:   10884
 k-point   179 :   0.3750 0.2500 0.5000  plane waves:   10904
 k-point   180 :   0.5000 0.2500 0.5000  plane waves:   10924
 k-point   181 :  -0.3750 0.2500 0.5000  plane waves:   10904
 k-point   182 :  -0.2500 0.2500 0.5000  plane waves:   10884
 k-point   183 :  -0.1250 0.2500 0.5000  plane waves:   10906
 k-point   184 :   0.0000 0.3750 0.5000  plane waves:   10904
 k-point   185 :   0.1250 0.3750 0.5000  plane waves:   10910
 k-point   186 :   0.2500 0.3750 0.5000  plane waves:   10904
 k-point   187 :   0.3750 0.3750 0.5000  plane waves:   10914
 k-point   188 :   0.5000 0.3750 0.5000  plane waves:   10932
 k-point   189 :  -0.3750 0.3750 0.5000  plane waves:   10914
 k-point   190 :  -0.2500 0.3750 0.5000  plane waves:   10904
 k-point   191 :  -0.1250 0.3750 0.5000  plane waves:   10910
 k-point   192 :   0.0000 0.5000 0.5000  plane waves:   10880
 k-point   193 :   0.1250 0.5000 0.5000  plane waves:   10868
 k-point   194 :   0.2500 0.5000 0.5000  plane waves:   10924
 k-point   195 :   0.3750 0.5000 0.5000  plane waves:   10932
 k-point   196 :   0.5000 0.5000 0.5000  plane waves:   11056

 maximum and minimum number of plane-waves per node :     11056    10852

 maximum number of plane-waves:     11056
 maximum index in each direction: 
   IXMAX=   14   IYMAX=   14   IZMAX=   13
   IXMIN=  -14   IYMIN=  -14   IZMIN=  -14


 serial   3D FFT for wavefunctions
 parallel 3D FFT for charge:
    minimum data exchange during FFTs selected (reduces bandwidth)


 total amount of memory used by VASP MPI-rank0  3163190. kBytes
=======================================================================

   base                                    :      30000. kBytes
   nonl-proj                               :     281618. kBytes
   fftplans                                :      48668. kBytes
   grid                                    :      86754. kBytes
   one-center                              :         73. kBytes
   wavefun                                 :    2716077. kBytes
 
     INWAV:  cpu time      0.0004: real time      0.0032
 Broyden mixing: mesh for mixing (old mesh)
   NGX = 27   NGY = 27   NGZ = 27
  (NGX  =112   NGY  =112   NGZ  =112)
  gives a total of  19683 points

 initial charge density was supplied:
 charge density of overlapping atoms calculated
 number of electron     128.0000000 magnetization 
 keeping initial charge density in first step


--------------------------------------------------------------------------------------------------------


 Maximum index for augmentation-charges        13997 (set IRDMAX)


--------------------------------------------------------------------------------------------------------


 First call to EWALD:  gamma=   0.240
 Maximum number of real-space cells   3x   3x   3
 Maximum number of reciprocal cells   3x   3x   3

    FEWALD:  cpu time      0.0264: real time      0.3458


--------------------------------------- Ionic step        1  -------------------------------------------




--------------------------------------- Iteration      1(   1)  ---------------------------------------


    POTLOK:  cpu time      0.9819: real time      1.3051
    SETDIJ:  cpu time      0.0416: real time      0.0644
     EDDAV:  cpu time    460.1969: real time    641.2714
       DOS:  cpu time      0.0390: real time      0.1203
    --------------------------------------------
      LOOP:  cpu time    461.2727: real time    642.9828

 eigenvalue-minimisations  : 30296
 total energy-change (2. order) : 0.9934241E+03  (-0.6461557E+04)
 number of electron     128.0000000 magnetization 
 augmentation part      128.0000000 magnetization 

 Free energy of the ion-electron system (eV)
  ---------------------------------------------------
  alpha Z        PSCENC =       138.38359776
  Ewald energy   TEWEN  =     -3573.36042757
  -Hartree energ DENC   =     -3570.05719320
  -exchange      EXHF   =         0.00000000
  -V(xc)+E(xc)   XCENC  =       375.99127676
  PAW double counting   =      6249.78202716    -6137.81450322
  entropy T*S    EENTRO =         0.00226402
  eigenvalues    EBANDS =      -231.76149667
  atomic energy  EATOM  =      7742.25859530
  Solvation  Ediel_sol  =         0.00000000
  ---------------------------------------------------
  free energy    TOTEN  =       993.42414036 eV

  energy without entropy =      993.42187634  energy(sigma->0) =      993.42338568


--------------------------------------------------------------------------------------------------------




--------------------------------------- Iteration      1(   2)  ---------------------------------------


