24
Lattice="7.39873268 0.0 0.0 0.0 7.39873268 0.0 0.0 0.0 7.39873268" Properties=species:S:1:pos:R:3:forces:R:3 stress="-0.023744410888360407 -0.0 -0.0 -0.0 -0.023744410888360407 -0.0 -0.0 -0.0 -0.023744410888360407" free_energy=-189.22807088 energy=-189.23966678 pbc="T T T"
Si       1.84968000       1.84968000       1.84968000       0.00000000       0.00000000       0.00000000
Si       3.69937000       0.00000000       3.69937000       0.00000000       0.00000000      -0.00000000
Si       1.84968000       5.54905000       5.54905000       0.00000000       0.00000000       0.00000000
Si       3.69937000       3.69937000       0.00000000       0.00000000      -0.00000000       0.00000000
Si       5.54905000       1.84968000       5.54905000      -0.00000000      -0.00000000       0.00000000
Si       0.00000000       0.00000000       0.00000000       0.00000000       0.00000000      -0.00000000
Si       5.54905000       5.54905000       1.84968000       0.00000000       0.00000000       0.00000000
Si       0.00000000       3.69937000       3.69937000      -0.00000000       0.00000000       0.00000000
O        6.47389000       6.47389000       0.92484000       0.00000000       0.00000000       0.00000000
O        2.77452000       0.92484000       2.77452000       0.00000000      -0.00000000       0.00000000
O        0.92484000       0.92484000       0.92484000      -0.00000000       0.00000000      -0.00000000
O        4.62421000       6.47389000       2.77452000      -0.00000000       0.00000000      -0.00000000
O        6.47389000       2.77452000       4.62421000      -0.00000000      -0.00000000      -0.00000000
O        2.77452000       4.62421000       6.47389000      -0.00000000       0.00000000       0.00000000
O        0.92484000       4.62421000       4.62421000       0.00000000       0.00000000      -0.00000000
O        4.62421000       2.77452000       6.47389000      -0.00000000      -0.00000000       0.00000000
O        2.77452000       6.47389000       4.62421000      -0.00000000      -0.00000000      -0.00000000
O        6.47389000       0.92484000       6.47389000       0.00000000       0.00000000      -0.00000000
O        4.62421000       0.92484000       4.62421000       0.00000000       0.00000000      -0.00000000
O        0.92484000       6.47389000       6.47389000      -0.00000000      -0.00000000      -0.00000000
O        2.77452000       2.77452000       0.92484000       0.00000000       0.00000000      -0.00000000
O        6.47389000       4.62421000       2.77452000      -0.00000000      -0.00000000       0.00000000
O        4.62421000       4.62421000       0.92484000      -0.00000000      -0.00000000      -0.00000000
O        0.92484000       2.77452000       2.77452000       0.00000000      -0.00000000      -0.00000000
