  24  24   0   0
  0.1687566E+02  0.7398733E-09  0.7398733E-09  0.7398733E-09  0.5000000E-15
  1.000000000000000E-004
  CAR 
 Silicon Dioxide (Quartz) - scf          
     11.77528962    -22.28830173  301     -0.65017031      1.00000000
    -22.288  0.0000E+00  0.0000E+00
    -22.175  0.0000E+00  0.0000E+00
    -22.061  0.0000E+00  0.0000E+00
    -21.948 -0.5243E-28 -0.5953E-29
    -21.834 -0.4366E-24 -0.4958E-25
    -21.721 -0.1898E-20 -0.2156E-21
    -21.607 -0.4303E-17 -0.4888E-18
    -21.493 -0.5081E-14 -0.5774E-15
    -21.380 -0.3017E-11 -0.3431E-12
    -21.266 -0.9532E-09 -0.1086E-09
    -21.153 -0.1552E-06 -0.1773E-07
    -21.039 -0.1292E-04 -0.1484E-05
    -20.926 -0.5426E-03 -0.6309E-04
    -20.812 -0.1120E-01 -0.1335E-02
    -20.699 -0.1069E+00 -0.1348E-01
    -20.585 -0.3808E+00 -0.5671E-01
    -20.472  0.2505E+00 -0.2826E-01
    -20.358  0.4193E+01  0.4478E+00
    -20.244  0.8044E+01  0.1361E+01
    -20.131  0.5390E+01  0.1973E+01
    -20.017  0.8101E+00  0.2065E+01
    -19.904 -0.5966E+00  0.1997E+01
    -19.790 -0.1417E+01  0.1837E+01
    -19.677 -0.2298E+01  0.1576E+01
    -19.563  0.8718E+01  0.2566E+01
    -19.450  0.3785E+02  0.6863E+01
    -19.336  0.4641E+02  0.1213E+02
    -19.223  0.1934E+02  0.1433E+02
    -19.109 -0.4034E+00  0.1428E+02
    -18.995 -0.1994E+01  0.1406E+02
    -18.882 -0.4567E+00  0.1400E+02
    -18.768 -0.1916E+00  0.1398E+02
    -18.655 -0.1258E+01  0.1384E+02
    -18.541 -0.3594E+01  0.1343E+02
    -18.428  0.5510E+01  0.1406E+02
    -18.314  0.4470E+02  0.1913E+02
    -18.201  0.7252E+02  0.2737E+02
    -18.087  0.4157E+02  0.3209E+02
    -17.974  0.4019E+01  0.3254E+02
    -17.860 -0.3525E+01  0.3214E+02
    -17.746 -0.1122E+01  0.3202E+02
    -17.633 -0.1280E+00  0.3200E+02
    -17.519 -0.6712E-02  0.3200E+02
    -17.406 -0.1730E-03  0.3200E+02
    -17.292 -0.2256E-05  0.3200E+02
    -17.179 -0.1508E-07  0.3200E+02
    -17.065 -0.5215E-10  0.3200E+02
    -16.952 -0.8213E-13  0.3200E+02
    -16.838  0.0000E+00  0.3200E+02
    -16.725  0.0000E+00  0.3200E+02
    -16.611  0.0000E+00  0.3200E+02
    -16.497  0.0000E+00  0.3200E+02
    -16.384  0.0000E+00  0.3200E+02
    -16.270  0.0000E+00  0.3200E+02
    -16.157  0.0000E+00  0.3200E+02
    -16.043  0.0000E+00  0.3200E+02
    -15.930  0.0000E+00  0.3200E+02
    -15.816  0.0000E+00  0.3200E+02
    -15.703  0.0000E+00  0.3200E+02
    -15.589  0.0000E+00  0.3200E+02
    -15.476  0.0000E+00  0.3200E+02
    -15.362  0.0000E+00  0.3200E+02
    -15.248  0.0000E+00  0.3200E+02
    -15.135  0.0000E+00  0.3200E+02
    -15.021  0.0000E+00  0.3200E+02
    -14.908  0.0000E+00  0.3200E+02
    -14.794  0.0000E+00  0.3200E+02
    -14.681  0.0000E+00  0.3200E+02
    -14.567  0.0000E+00  0.3200E+02
    -14.454  0.0000E+00  0.3200E+02
    -14.340  0.0000E+00  0.3200E+02
    -14.227  0.0000E+00  0.3200E+02
    -14.113  0.0000E+00  0.3200E+02
    -13.999  0.0000E+00  0.3200E+02
    -13.886  0.0000E+00  0.3200E+02
    -13.772  0.0000E+00  0.3200E+02
    -13.659  0.0000E+00  0.3200E+02
    -13.545  0.0000E+00  0.3200E+02
    -13.432  0.0000E+00  0.3200E+02
    -13.318  0.0000E+00  0.3200E+02
    -13.205  0.0000E+00  0.3200E+02
    -13.091  0.0000E+00  0.3200E+02
    -12.978  0.0000E+00  0.3200E+02
    -12.864  0.0000E+00  0.3200E+02
    -12.750  0.0000E+00  0.3200E+02
    -12.637 -0.5300E-29  0.3200E+02
    -12.523 -0.5169E-25  0.3200E+02
    -12.410 -0.2632E-21  0.3200E+02
    -12.296 -0.6990E-18  0.3200E+02
    -12.183 -0.9673E-15  0.3200E+02
    -12.069 -0.6749E-12  0.3200E+02
    -11.956 -0.2502E-09  0.3200E+02
    -11.842 -0.4787E-07  0.3200E+02
    -11.729 -0.4695E-05  0.3200E+02
    -11.615 -0.2333E-03  0.3200E+02
    -11.501 -0.5745E-02  0.3200E+02
    -11.388 -0.6677E-01  0.3199E+02
    -11.274 -0.3156E+00  0.3196E+02
    -11.161 -0.1380E+00  0.3194E+02
    -11.047  0.2946E+01  0.3227E+02
    -10.934  0.7593E+01  0.3314E+02
    -10.820  0.6558E+01  0.3388E+02
    -10.707  0.1668E+01  0.3407E+02
    -10.593 -0.3594E+00  0.3403E+02
    -10.480 -0.2264E+00  0.3400E+02
    -10.366 -0.3594E-01  0.3400E+02
    -10.252 -0.2475E-02  0.3400E+02
    -10.139 -0.8196E-04  0.3400E+02
    -10.025 -0.1356E-05  0.3400E+02
     -9.912 -0.1141E-07  0.3400E+02
     -9.798 -0.5427E-10  0.3400E+02
     -9.685 -0.1792E-08  0.3400E+02
     -9.571 -0.3358E-06  0.3400E+02
     -9.458 -0.3223E-04  0.3400E+02
     -9.344 -0.1567E-02  0.3400E+02
     -9.231 -0.3771E-01  0.3400E+02
     -9.117 -0.4274E+00  0.3395E+02
     -9.004 -0.1951E+01  0.3373E+02
     -8.890 -0.5932E+00  0.3366E+02
     -8.776  0.1862E+02  0.3577E+02
     -8.663  0.4606E+02  0.4100E+02
     -8.549  0.3850E+02  0.4537E+02
     -8.436  0.9264E+01  0.4643E+02
     -8.322 -0.2230E+01  0.4617E+02
     -8.209 -0.1301E+01  0.4602E+02
     -8.095 -0.2005E+00  0.4600E+02
     -7.982 -0.1347E-01  0.4600E+02
     -7.868 -0.4362E-03  0.4600E+02
     -7.755 -0.7080E-05  0.4600E+02
     -7.641 -0.2301E-05  0.4600E+02
     -7.527 -0.1484E-03  0.4600E+02
     -7.414 -0.4922E-02  0.4600E+02
     -7.300 -0.7905E-01  0.4599E+02
     -7.187 -0.5630E+00  0.4593E+02
     -7.073 -0.1193E+01  0.4579E+02
     -6.960  0.3528E+01  0.4619E+02
     -6.846  0.1779E+02  0.4821E+02
     -6.733  0.2325E+02  0.5085E+02
     -6.619  0.8877E+01  0.5186E+02
     -6.506 -0.3720E+00  0.5182E+02
     -6.392  0.1785E+02  0.5384E+02
     -6.278  0.4595E+02  0.5906E+02
     -6.165  0.3821E+02  0.6340E+02
     -6.051  0.9035E+01  0.6443E+02
     -5.938 -0.2251E+01  0.6417E+02
     -5.824 -0.1284E+01  0.6402E+02
     -5.711 -0.1959E+00  0.6400E+02
     -5.597 -0.1307E-01  0.6400E+02
     -5.484 -0.4202E-03  0.6400E+02
     -5.370 -0.6756E-05  0.6400E+02
     -5.257 -0.5529E-07  0.6400E+02
     -5.143 -0.2325E-09  0.6400E+02
     -5.029 -0.4928E-12  0.6400E+02
     -4.916 -0.8660E-15  0.6400E+02
     -4.802 -0.7214E-12  0.6400E+02
     -4.689 -0.3206E-09  0.6400E+02
     -4.575 -0.7349E-07  0.6400E+02
     -4.462 -0.8652E-05  0.6400E+02
     -4.348 -0.5180E-03  0.6400E+02
     -4.235 -0.1549E-01  0.6400E+02
     -4.121 -0.2227E+00  0.6397E+02
     -4.008 -0.1387E+01  0.6382E+02
     -3.894 -0.2175E+01  0.6357E+02
     -3.780  0.9820E+01  0.6468E+02
     -3.667  0.3761E+02  0.6895E+02
     -3.553  0.4481E+02  0.7404E+02
     -3.440  0.3730E+02  0.7828E+02
     -3.326  0.5328E+02  0.8433E+02
     -3.213  0.5157E+02  0.9018E+02
     -3.099  0.1847E+02  0.9228E+02
     -2.986  0.7655E+01  0.9315E+02
     -2.872  0.2069E+02  0.9550E+02
     -2.759  0.1898E+02  0.9765E+02
     -2.645  0.4002E+01  0.9811E+02
     -2.531 -0.3517E+01  0.9771E+02
     -2.418  0.2995E+01  0.9805E+02
     -2.304  0.2990E+02  0.1014E+03
     -2.191  0.4853E+02  0.1070E+03
     -2.077  0.2753E+02  0.1101E+03
     -1.964  0.2317E+01  0.1103E+03
     -1.850 -0.3567E+01  0.1099E+03
     -1.737 -0.3067E+01  0.1096E+03
     -1.623  0.7883E+01  0.1105E+03
     -1.510  0.3689E+02  0.1147E+03
     -1.396  0.4686E+02  0.1200E+03
     -1.282  0.2025E+02  0.1223E+03
     -1.169 -0.8447E+00  0.1222E+03
     -1.055 -0.3048E+01  0.1218E+03
     -0.942  0.5229E+01  0.1224E+03
     -0.828  0.2036E+02  0.1248E+03
     -0.715  0.2227E+02  0.1273E+03
     -0.601  0.8004E+01  0.1282E+03
     -0.488 -0.6024E+00  0.1281E+03
     -0.374 -0.8934E+00  0.1280E+03
     -0.261 -0.1778E+00  0.1280E+03
     -0.147 -0.1462E-01  0.1280E+03
     -0.033 -0.5695E-03  0.1280E+03
      0.080 -0.1102E-04  0.1280E+03
      0.194 -0.1081E-06  0.1280E+03
      0.307 -0.5436E-09  0.1280E+03
      0.421 -0.1408E-11  0.1280E+03
      0.534  0.0000E+00  0.1280E+03
      0.648  0.0000E+00  0.1280E+03
      0.761  0.0000E+00  0.1280E+03
      0.875  0.0000E+00  0.1280E+03
      0.988  0.0000E+00  0.1280E+03
      1.102  0.0000E+00  0.1280E+03
      1.216  0.0000E+00  0.1280E+03
      1.329  0.0000E+00  0.1280E+03
      1.443  0.0000E+00  0.1280E+03
      1.556  0.0000E+00  0.1280E+03
      1.670  0.0000E+00  0.1280E+03
      1.783  0.0000E+00  0.1280E+03
      1.897  0.0000E+00  0.1280E+03
      2.010  0.0000E+00  0.1280E+03
      2.124  0.0000E+00  0.1280E+03
      2.237  0.0000E+00  0.1280E+03
      2.351  0.0000E+00  0.1280E+03
      2.465  0.0000E+00  0.1280E+03
      2.578  0.0000E+00  0.1280E+03
      2.692  0.0000E+00  0.1280E+03
      2.805  0.0000E+00  0.1280E+03
      2.919  0.0000E+00  0.1280E+03
      3.032 -0.4679E-26  0.1280E+03
      3.146 -0.2836E-22  0.1280E+03
      3.259 -0.8972E-19  0.1280E+03
      3.373 -0.1479E-15  0.1280E+03
      3.486 -0.1230E-12  0.1280E+03
      3.600 -0.5452E-10  0.1280E+03
      3.714 -0.1247E-07  0.1280E+03
      3.827 -0.1464E-05  0.1280E+03
      3.941 -0.8747E-04  0.1280E+03
      4.054 -0.2609E-02  0.1280E+03
      4.168 -0.3739E-01  0.1280E+03
      4.281 -0.2317E+00  0.1280E+03
      4.395 -0.3518E+00  0.1279E+03
      4.508  0.1738E+01  0.1281E+03
      4.622  0.6633E+01  0.1289E+03
      4.735  0.7544E+01  0.1297E+03
      4.849  0.2861E+01  0.1301E+03
      4.963 -0.1580E+00  0.1300E+03
      5.076 -0.3103E+00  0.1300E+03
      5.190 -0.6444E-01  0.1300E+03
      5.303 -0.5468E-02  0.1300E+03
      5.417 -0.2193E-03  0.1300E+03
      5.530 -0.4361E-05  0.1300E+03
      5.644 -0.4396E-07  0.1300E+03
      5.757 -0.2271E-09  0.1300E+03
      5.871 -0.6062E-12  0.1300E+03
      5.984 -0.1662E-22  0.1300E+03
      6.098 -0.6287E-19  0.1300E+03
      6.212 -0.1240E-15  0.1300E+03
      6.325 -0.1214E-12  0.1300E+03
      6.439 -0.6560E-10  0.1300E+03
      6.552 -0.1799E-07  0.1300E+03
      6.666 -0.2539E-05  0.1300E+03
      6.779 -0.1828E-03  0.1300E+03
      6.893 -0.6616E-02  0.1300E+03
      7.006 -0.1167E+00  0.1300E+03
      7.120 -0.9279E+00  0.1299E+03
      7.233 -0.2442E+01  0.1296E+03
      7.347  0.4676E+01  0.1301E+03
      7.461  0.3179E+02  0.1337E+03
      7.574  0.4760E+02  0.1391E+03
      7.688  0.2444E+02  0.1419E+03
      7.801  0.6759E+01  0.1427E+03
      7.915  0.1857E+02  0.1448E+03
      8.028  0.2693E+02  0.1479E+03
      8.142  0.1627E+02  0.1497E+03
      8.255  0.3891E+01  0.1501E+03
      8.369 -0.5592E+00  0.1501E+03
      8.482 -0.5745E+00  0.1500E+03
      8.596 -0.1318E+00  0.1500E+03
      8.710 -0.1329E-01  0.1500E+03
      8.823 -0.6478E-03  0.1500E+03
      8.937 -0.1703E-04  0.1500E+03
      9.050 -0.8617E-04  0.1500E+03
      9.164 -0.2910E-02  0.1500E+03
      9.277 -0.4788E-01  0.1500E+03
      9.391 -0.3520E+00  0.1500E+03
      9.504 -0.8006E+00  0.1499E+03
      9.618  0.2074E+01  0.1501E+03
      9.731  0.1144E+02  0.1514E+03
      9.845  0.1590E+02  0.1532E+03
      9.959  0.7697E+01  0.1541E+03
     10.072  0.2641E+00  0.1541E+03
     10.186 -0.7289E+00  0.1540E+03
     10.299 -0.1903E+00  0.1540E+03
     10.413 -0.1904E-01  0.1540E+03
     10.526 -0.8875E-03  0.1540E+03
     10.640 -0.2041E-04  0.1540E+03
     10.753 -0.2375E-06  0.1540E+03
     10.867 -0.1417E-08  0.1540E+03
     10.980 -0.4361E-11  0.1540E+03
     11.094 -0.7822E-14  0.1540E+03
     11.208  0.0000E+00  0.1540E+03
     11.321  0.0000E+00  0.1540E+03
     11.435  0.0000E+00  0.1540E+03
     11.548  0.0000E+00  0.1540E+03
     11.662  0.0000E+00  0.1540E+03
     11.775  0.0000E+00  0.1540E+03
