       N       E                     dE             d eps       ncg     rms          rms(c)
DAV:   1     0.999046687042E+03    0.99905E+03   -0.65269E+04   154   0.149E+03
DAV:   2    -0.120413807416E+03   -0.11195E+04   -0.10958E+04   199   0.354E+02
DAV:   3    -0.215616879976E+03   -0.95203E+02   -0.94905E+02   180   0.114E+02
DAV:   4    -0.217326427199E+03   -0.17095E+01   -0.17068E+01   188   0.163E+01
DAV:   5    -0.217359219871E+03   -0.32793E-01   -0.32780E-01   172   0.220E+00    0.431E+01
RMM:   6    -0.188628677806E+03    0.28731E+02   -0.11444E+02   173   0.361E+01    0.191E+01
RMM:   7    -0.189267358519E+03   -0.63868E+00   -0.17471E+01   178   0.120E+01    0.773E+00
RMM:   8    -0.189179690984E+03    0.87668E-01   -0.12509E+00   178   0.464E+00    0.223E+00
RMM:   9    -0.189221162779E+03   -0.41472E-01   -0.38291E-01   178   0.278E+00    0.826E-01
RMM:  10    -0.189240771950E+03   -0.19609E-01   -0.31586E-01   184   0.165E+00    0.785E-01
RMM:  11    -0.189227268647E+03    0.13503E-01   -0.62266E-02   179   0.925E-01    0.105E-01
RMM:  12    -0.189230445262E+03   -0.31766E-02   -0.29672E-02   180   0.643E-01    0.304E-01
RMM:  13    -0.189228017690E+03    0.24276E-02   -0.53122E-03   180   0.284E-01    0.923E-02
RMM:  14    -0.189228041901E+03   -0.24212E-04   -0.25522E-03   179   0.180E-01    0.159E-02
RMM:  15    -0.189228070882E+03   -0.28980E-04   -0.24642E-04   119   0.523E-02
   1 F= -.18922807E+03 E0= -.18923967E+03  d E =0.347877E-01
