<?xml version="1.0" encoding="ISO-8859-1"?>
<modeling>
 <generator>
  <i name="program" type="string">vasp </i>
  <i name="version" type="string">6.5.0  </i>
  <i name="subversion" type="string">16Dec24 (build Mar 12 2025 16:11:14) complex                          parallel </i>
  <i name="platform" type="string">LinuxIFC </i>
  <i name="date" type="string">2025 09 22 </i>
  <i name="time" type="string">10:51:42 </i>
 </generator>
 <incar>
  <i type="string" name="SYSTEM">Silicon Dioxide (Quartz) - scf</i>
  <i type="string" name="PREC">Accurate</i>
  <i type="string" name="ALGO">Fast</i>
  <i type="int" name="IBRION">    -1</i>
  <i name="EDIFFG">     -0.01000000</i>
  <i type="int" name="NSW">     0</i>
  <i name="ENCUT">    520.00000000</i>
  <i type="string" name="GGA">PE</i>
 </incar>
 <primitive_cell>
  <structure name="primitive_cell" >
   <crystal>
    <varray name="basis" >
     <v>       3.69936634      -3.69936634       0.00000000 </v>
     <v>       3.69936634       0.00000000       3.69936634 </v>
     <v>      -0.00000000      -3.69936634       3.69936634 </v>
    </varray>
    <i name="volume">    101.25396008 </i>
    <varray name="rec_basis" >
     <v>       0.13515828      -0.13515828      -0.13515828 </v>
     <v>       0.13515828       0.13515828       0.13515828 </v>
     <v>      -0.13515828      -0.13515828       0.13515828 </v>
    </varray>
   </crystal>
   <varray name="positions" >
    <v>       0.75000000       0.75000000       0.75000000 </v>
    <v>       1.00000000       0.00000000       0.00000000 </v>
    <v>       0.87500000       0.87500000       0.37500000 </v>
    <v>       0.87500000       0.87500000       0.87500000 </v>
    <v>       0.87500000       0.37500000       0.87500000 </v>
    <v>       0.37500000       0.87500000       0.87500000 </v>
   </varray>
  </structure>
  <varray name="primitive_index" >
   <v type="int" >        1 </v>
   <v type="int" >        2 </v>
   <v type="int" >       21 </v>
   <v type="int" >       10 </v>
   <v type="int" >       11 </v>
   <v type="int" >       24 </v>
  </varray>
 </primitive_cell>
 <kpoints>
  <generation param="Gamma">
   <v type="int" name="divisions">       1        1        1 </v>
   <v name="usershift">      0.00000000       0.00000000       0.00000000 </v>
   <v name="genvec1">      1.00000000       0.00000000       0.00000000 </v>
   <v name="genvec2">      0.00000000       1.00000000       0.00000000 </v>
   <v name="genvec3">      0.00000000       0.00000000       1.00000000 </v>
   <v name="shift">      0.00000000       0.00000000       0.00000000 </v>
  </generation>
  <varray name="kpointlist" >
   <v>       0.00000000       0.00000000       0.00000000 </v>
  </varray>
  <varray name="weights" >
   <v>       1.00000000 </v>
  </varray>
 </kpoints>
 <parameters>
  <separator name="general" >
   <i type="string" name="SYSTEM">Silicon Dioxide (Quartz) - scf</i>
   <i type="logical" name="LCOMPAT"> F  </i>
  </separator>
  <separator name="electronic" >
   <i type="string" name="PREC">accura</i>
   <i name="ENMAX">    520.00000000</i>
   <i name="ENAUG">    605.39200000</i>
   <i name="EDIFF">      0.00010000</i>
   <i type="int" name="IALGO">    68</i>
   <i type="int" name="IWAVPR">    10</i>
   <i type="int" name="NBANDS">    77</i>
   <i type="int" name="NBANDSLOW">    -1</i>
   <i type="int" name="NBANDSHIGH">    -1</i>
   <i name="NELECT">    128.00000000</i>
   <i type="int" name="TURBO">     0</i>
   <i type="int" name="IRESTART">     0</i>
   <i type="int" name="NREBOOT">     0</i>
   <i type="int" name="NMIN">     0</i>
   <i name="EREF">      0.00000000</i>
   <separator name="electronic smearing" >
    <i type="int" name="ISMEAR">     1</i>
    <i name="SIGMA">      0.20000000</i>
    <i name="KSPACING">      0.50000000</i>
    <i type="logical" name="KGAMMA"> T  </i>
    <i type="logical" name="KBLOWUP"> T  </i>
   </separator>
   <separator name="electronic projectors" >
    <i type="logical" name="LREAL"> F  </i>
    <v name="ROPT">      0.00000000      0.00000000</v>
    <i type="int" name="LMAXPAW">  -100</i>
    <i type="int" name="LMAXMIX">     2</i>
    <i type="logical" name="NLSPLINE"> F  </i>
   </separator>
   <separator name="electronic startup" >
    <i type="int" name="ISTART">     0</i>
    <i type="int" name="ICHARG">     2</i>
    <i type="int" name="INIWAV">     1</i>
   </separator>
   <separator name="electronic spin" >
    <i type="int" name="ISPIN">     1</i>
    <i type="logical" name="LNONCOLLINEAR"> F  </i>
    <v name="MAGMOM">      1.00000000      1.00000000      1.00000000      1.00000000      1.00000000      1.00000000      1.00000000      1.00000000      1.00000000      1.00000000      1.00000000      1.00000000      1.00000000      1.00000000      1.00000000      1.00000000      1.00000000      1.00000000      1.00000000      1.00000000
      1.00000000      1.00000000      1.00000000      1.00000000</v>
    <i name="NUPDOWN">     -1.00000000</i>
    <i type="logical" name="LSORBIT"> F  </i>
    <v name="SAXIS">      0.00000000      0.00000000      1.00000000</v>
    <i type="logical" name="LSPIRAL"> F  </i>
    <v name="QSPIRAL">      0.00000000      0.00000000      0.00000000</v>
    <i type="logical" name="LZEROZ"> F  </i>
   </separator>
   <separator name="electronic exchange-correlation" >
    <i type="logical" name="LASPH"> F  </i>
   </separator>
   <separator name="electronic convergence" >
    <i type="int" name="NELM">    60</i>
    <i type="int" name="NELMDL">    -5</i>
    <i type="int" name="NELMIN">     2</i>
    <i name="ENINI">    520.00000000</i>
    <separator name="electronic convergence detail" >
     <i type="logical" name="LDIAG"> T  </i>
     <i type="logical" name="LSUBROT"> F  </i>
     <i name="WEIMIN">      0.00000000</i>
     <i name="EBREAK">      0.00000032</i>
     <i name="DEPER">      0.30000000</i>
     <i type="int" name="NRMM">     4</i>
     <i name="TIME">      0.40000000</i>
    </separator>
   </separator>
   <separator name="electronic mixer" >
    <i name="AMIX">      0.40000000</i>
    <i name="BMIX">      1.00000000</i>
    <i name="AMIN">      0.10000000</i>
    <i name="AMIX_MAG">      1.60000000</i>
    <i name="BMIX_MAG">      1.00000000</i>
    <separator name="electronic mixer details" >
     <i type="int" name="IMIX">     4</i>
     <i type="logical" name="MIXFIRST"> F  </i>
     <i type="int" name="MAXMIX">   -45</i>
     <i name="WC">    100.00000000</i>
     <i type="int" name="INIMIX">     1</i>
     <i type="int" name="MIXPRE">     1</i>
     <i type="int" name="MREMOVE">     5</i>
    </separator>
   </separator>
   <separator name="electronic dipolcorrection" >
    <i type="logical" name="LDIPOL"> F  </i>
    <i type="logical" name="LMONO"> F  </i>
    <i type="int" name="IDIPOL">     0</i>
    <i name="EPSILON">      1.00000000</i>
    <v name="DIPOL">   -100.00000000   -100.00000000   -100.00000000</v>
    <i name="EFIELD">      0.00000000</i>
    <i type="logical" name="LVACPOTAV"> F  </i>
   </separator>
  </separator>
  <separator name="grids" >
   <i type="int" name="NGX">    56</i>
   <i type="int" name="NGY">    56</i>
   <i type="int" name="NGZ">    56</i>
   <i type="int" name="NGXF">   112</i>
   <i type="int" name="NGYF">   112</i>
   <i type="int" name="NGZF">   112</i>
   <i type="logical" name="ADDGRID"> F  </i>
  </separator>
  <separator name="ionic" >
   <i type="int" name="NSW">     0</i>
   <i type="int" name="IBRION">    -1</i>
   <i type="int" name="MDALGO">     0</i>
   <i type="int" name="ISIF">     2</i>
   <i name="PSTRESS">      0.00000000</i>
   <i name="EDIFFG">     -0.01000000</i>
   <i type="int" name="NFREE">     0</i>
   <i name="POTIM">      0.50000000</i>
   <i name="SMASS">     -3.00000000</i>
   <i name="SCALEE">      1.00000000</i>
  </separator>
  <separator name="ionic md" >
   <i name="TEBEG">      0.00010000</i>
   <i name="TEEND">      0.00010000</i>
   <i type="int" name="NBLOCK">     1</i>
   <i type="int" name="KBLOCK">     1</i>
   <i type="int" name="NPACO">   256</i>
   <i name="APACO">     10.00000000</i>
  </separator>
  <separator name="symmetry" >
   <i type="int" name="ISYM">     2</i>
   <i name="SYMPREC">      0.00001000</i>
  </separator>
  <separator name="dos" >
   <i type="int" name="LORBIT">     0</i>
   <v name="RWIGS">     -1.00000000     -1.00000000</v>
   <i type="int" name="NEDOS">   301</i>
   <i name="EMIN">     10.00000000</i>
   <i name="EMAX">    -10.00000000</i>
   <i name="EFERMI">      0.00000000</i>
  </separator>
  <separator name="writing" >
   <i type="int" name="NWRITE">     2</i>
   <i type="logical" name="LWAVE"> T  </i>
   <i type="logical" name="LDOWNSAMPLE"> F  </i>
   <i type="logical" name="LCHARG"> T  </i>
   <i type="logical" name="LPARD"> F  </i>
   <i type="logical" name="LVTOT"> F  </i>
   <i type="logical" name="LVHAR"> F  </i>
   <i type="logical" name="LELF"> F  </i>
   <i type="logical" name="LOPTICS"> F  </i>
   <v name="STM">      0.00000000      0.00000000      0.00000000      0.00000000      0.00000000      0.00000000      0.00000000</v>
  </separator>
  <separator name="performance" >
   <i type="int" name="NPAR">     1</i>
   <i type="int" name="NSIM">     4</i>
   <i type="int" name="NBLK">    -1</i>
   <i type="logical" name="LPLANE"> T  </i>
   <i type="logical" name="LSCALAPACK"> T  </i>
   <i type="logical" name="LSCAAWARE"> F  </i>
   <i type="logical" name="LSCALU"> F  </i>
   <i type="logical" name="LASYNC"> F  </i>
   <i type="logical" name="LORBITALREAL"> F  </i>
  </separator>
  <separator name="miscellaneous" >
   <i type="int" name="IDIOT">     3</i>
   <i type="int" name="PHON_NSTRUCT">    -1</i>
   <i type="logical" name="LMUSIC"> F  </i>
   <v name="POMASS">     28.08500000     16.00000000</v>
   <v name="DARWINR">      0.00000000      0.00000000</v>
   <v name="DARWINV">      1.00000000      1.00000000</v>
   <i type="logical" name="LCORR"> T  </i>
  </separator>
  <i type="logical" name="GGA_COMPAT"> T  </i>
  <i type="logical" name="LBERRY"> F  </i>
  <i type="int" name="ICORELEVEL">     0</i>
  <i type="logical" name="LDAU"> F  </i>
  <i type="int" name="I_CONSTRAINED_M">     0</i>
  <separator name="electronic exchange-correlation" >
   <i type="string" name="GGA    ">PE</i>
   <i type="string" name="XC_C">1</i>
   <i type="int" name="VOSKOWN">     0</i>
   <i type="logical" name="LHFCALC"> F  </i>
   <i type="string" name="PRECFOCK"></i>
   <i type="logical" name="LSYMGRAD"> F  </i>
   <i type="logical" name="LHFONE"> F  </i>
   <i type="logical" name="LRHFCALC"> F  </i>
   <i type="logical" name="LTHOMAS"> F  </i>
   <i type="logical" name="LMODELHF"> F  </i>
   <i type="logical" name="LFOCKACE"> F  </i>
   <i name="ENCUT4O">     -1.00000000</i>
   <i type="int" name="EXXOEP">     0</i>
   <i type="int" name="FOURORBIT">     0</i>
   <i name="AEXX">      0.00000000</i>
   <i name="HFALPHA">      0.00000000</i>
   <i name="MCALPHA">      0.00000000</i>
   <i name="ALDAX">      1.00000000</i>
   <i name="AGGAX">      1.00000000</i>
   <i name="AMGGAX">      1.00000000</i>
   <i name="ALDAC">      1.00000000</i>
   <i name="AGGAC">      1.00000000</i>
   <i name="AMGGAC">      1.00000000</i>
   <i type="int" name="NKREDX">     1</i>
   <i type="int" name="NKREDY">     1</i>
   <i type="int" name="NKREDZ">     1</i>
   <i type="logical" name="SHIFTRED"> F  </i>
   <i type="logical" name="ODDONLY"> F  </i>
   <i type="logical" name="EVENONLY"> F  </i>
   <i type="int" name="LMAXFOCK">     0</i>
   <i type="int" name="NMAXFOCKAE">     0</i>
   <i type="logical" name="LFOCKAEDFT"> F  </i>
   <i name="HFSCREEN">      0.00000000</i>
   <i name="HFSCREENC">      0.00000000</i>
   <i type="int" name="NBANDSGWLOW">     0</i>
  </separator>
  <separator name="vdW DFT" >
   <i type="logical" name="LUSE_VDW"> F  </i>
   <i type="int" name="IVDW_NL">    -1</i>
   <i type="logical" name="LSPIN_VDW"> F  </i>
   <i name="ZAB_VDW">     -0.84910000</i>
   <i name="GAMMA_VDW">      1.39626340</i>
   <i name="ALPHA_VDW">      0.00000000</i>
   <i name="PARAM1">      0.12340000</i>
   <i name="PARAM2">      1.00000000</i>
   <i name="BPARAM">      6.30000000</i>
   <i name="CPARAM">      0.00930000</i>
  </separator>
  <separator name="model GW" >
   <i type="int" name="MODEL_GW">     0</i>
   <i name="MODEL_EPS0">     10.12539601</i>
   <i name="MODEL_ALPHA">      1.00000000</i>
  </separator>
  <separator name="linear response parameters" >
   <i type="logical" name="LEPSILON"> F  </i>
   <i type="logical" name="LRPA"> F  </i>
   <i type="logical" name="LNABLA"> F  </i>
   <i type="logical" name="LVEL"> F  </i>
   <i name="CSHIFT">      0.10000000</i>
   <i name="OMEGAMAX">     -1.00000000</i>
   <i name="DEG_THRESHOLD">      0.00200000</i>
   <i name="RTIME">     -0.10000000</i>
   <i name="WPLASMAI">      0.00000000</i>
   <v name="DFIELD">      0.00000000      0.00000000      0.00000000</v>
   <v name="WPLASMA">      0.00000000      0.00000000      0.00000000      0.00000000      0.00000000      0.00000000      0.00000000      0.00000000      0.00000000</v>
  </separator>
  <separator name="orbital magnetization" >
   <i type="logical" name="NUCIND"> F  </i>
   <v name="MAGPOS">      0.00000000      0.00000000      0.00000000</v>
   <i type="logical" name="LNICSALL"> T  </i>
   <i type="logical" name="ORBITALMAG"> F  </i>
   <i type="logical" name="LMAGBLOCH"> F  </i>
   <i type="logical" name="LCHIMAG"> F  </i>
   <i type="logical" name="LGAUGE"> T  </i>
   <i type="int" name="MAGATOM">     0</i>
   <v name="MAGDIPOL">      0.00000000      0.00000000      0.00000000</v>
   <v name="AVECCONST">      0.00000000      0.00000000      0.00000000</v>
  </separator>
  <separator name="response functions" >
   <i type="logical" name="LALL_IN_ONE"> F  </i>
   <i type="int" name="IALL_IN_ONE">    -1</i>
   <i type="int" name="NBANDS_WAVE">    -1</i>
   <i type="logical" name="LFINITE_TEMPERATURE"> F  </i>
   <i type="logical" name="LADDER"> F  </i>
   <i type="logical" name="LRPAFORCE"> F  </i>
   <i type="logical" name="LFXC"> F  </i>
   <i type="logical" name="LHARTREE"> T  </i>
   <i type="int" name="IBSE">     2</i>
   <v type="int" name="KPOINT">    -1     0     0     0</v>
   <i type="logical" name="LTCTC"> F  </i>
   <i type="logical" name="LTCTE"> F  </i>
   <i type="logical" name="LTETE"> F  </i>
   <i type="logical" name="LTRIPLET"> F  </i>
   <i type="logical" name="LFXCEPS"> F  </i>
   <i type="logical" name="LFXHEG"> F  </i>
   <i type="int" name="NATURALO">     2</i>
   <i type="logical" name="LHOLEGF"> F  </i>
   <i type="logical" name="L2ORDER"> F  </i>
   <i type="logical" name="LDMP1"> F  </i>
   <i type="logical" name="LMP2LT"> F  </i>
   <i type="logical" name="LSMP2LT"> F  </i>
   <i type="logical" name="LGWLF"> F  </i>
   <i name="ENCUTGW">     -1.60000002</i>
   <i name="ENCUTGWSOFT">     -1.60000002</i>
   <i name="ENCUTLF">     -1.00000000</i>
   <i type="logical" name="ESF_SPLINES"> F  </i>
   <i name="ESF_CONV">      0.01000000</i>
   <i type="int" name="ESF_NINTER">    15</i>
   <i type="int" name="LMAXMP2">    -1</i>
   <i name="SCISSOR">      0.00000000</i>
   <i type="int" name="NOMEGA">     0</i>
   <i type="int" name="NOMEGAR">     0</i>
   <i type="int" name="NBANDSGW">    -1</i>
   <i type="int" name="NBANDSO">    -1</i>
   <i type="int" name="NBANDSV">    -1</i>
   <i type="int" name="NELMGW">     1</i>
   <i type="int" name="NELMHF">     1</i>
   <i type="int" name="DIM">     3</i>
   <i type="int" name="IESPILON">     4</i>
   <i type="int" name="ANTIRES">     0</i>
   <i name="OMEGAMAX">    -30.00000000</i>
   <i name="OMEGAMIN">    -30.00000000</i>
   <i name="OMEGATL">   -200.00000000</i>
   <i type="int" name="OMEGAGRID">     0</i>
   <i name="CSHIFT">     -0.10000000</i>
   <i type="logical" name="LSELFENERGY"> F  </i>
   <i type="logical" name="LSPECTRAL"> F  </i>
   <i type="logical" name="LSPECTRALGW"> F  </i>
   <i type="logical" name="LSINGLES"> F  </i>
   <i type="logical" name="LFERMIGW"> F  </i>
   <i type="logical" name="ODDONLYGW"> F  </i>
   <i type="logical" name="EVENONLYGW"> F  </i>
   <i type="int" name="NKREDLFX">     1</i>
   <i type="int" name="NKREDLFY">     1</i>
   <i type="int" name="NKREDLFZ">     1</i>
   <i type="int" name="MAXMEM">  2800</i>
   <i type="int" name="TELESCOPE">     0</i>
   <i type="int" name="NTAUPAR">    -1</i>
   <i type="int" name="NOMEGAPAR">    -1</i>
   <i name="DAMP_NEWTON">      0.80000001</i>
   <i name="LAMBDA">      1.00000000</i>
  </separator>
  <separator name="External order field" >
   <i name="OFIELD_KAPPA">      0.00000000</i>
   <v name="OFIELD_K">      0.00000000      0.00000000      0.00000000</v>
   <i name="OFIELD_Q6_NEAR">      0.00000000</i>
   <i name="OFIELD_Q6_FAR">      0.00000000</i>
   <i name="OFIELD_A">      0.00000000</i>
  </separator>
  <separator name="optional k-points parameters" >
   <i type="int" name="KPOINTS_OPT_MODE">     1</i>
   <i type="logical" name="LKPOINTS_OPT"> F  </i>
  </separator>
 </parameters>
 <atominfo>
  <atoms>      24 </atoms>
  <types>       2 </types>
  <array name="atoms" >
   <dimension dim="1">ion</dimension>
   <field type="string">element</field>
   <field type="int">atomtype</field>
   <set>
    <rc><c>Si</c><c>   1</c></rc>
    <rc><c>Si</c><c>   1</c></rc>
    <rc><c>Si</c><c>   1</c></rc>
    <rc><c>Si</c><c>   1</c></rc>
    <rc><c>Si</c><c>   1</c></rc>
    <rc><c>Si</c><c>   1</c></rc>
    <rc><c>Si</c><c>   1</c></rc>
    <rc><c>Si</c><c>   1</c></rc>
    <rc><c>O </c><c>   2</c></rc>
    <rc><c>O </c><c>   2</c></rc>
    <rc><c>O </c><c>   2</c></rc>
    <rc><c>O </c><c>   2</c></rc>
    <rc><c>O </c><c>   2</c></rc>
    <rc><c>O </c><c>   2</c></rc>
    <rc><c>O </c><c>   2</c></rc>
    <rc><c>O </c><c>   2</c></rc>
    <rc><c>O </c><c>   2</c></rc>
    <rc><c>O </c><c>   2</c></rc>
    <rc><c>O </c><c>   2</c></rc>
    <rc><c>O </c><c>   2</c></rc>
    <rc><c>O </c><c>   2</c></rc>
    <rc><c>O </c><c>   2</c></rc>
    <rc><c>O </c><c>   2</c></rc>
    <rc><c>O </c><c>   2</c></rc>
   </set>
  </array>
  <array name="atomtypes" >
   <dimension dim="1">type</dimension>
   <field type="int">atomspertype</field>
   <field type="string">element</field>
   <field>mass</field>
   <field>valence</field>
   <field type="string">pseudopotential</field>
   <set>
    <rc><c>   8</c><c>Si</c><c>     28.08500000</c><c>      4.00000000</c><c>  PAW_PBE Si 05Jan2001                  </c></rc>
    <rc><c>  16</c><c>O </c><c>     16.00000000</c><c>      6.00000000</c><c>  PAW_PBE O 08Apr2002                   </c></rc>
   </set>
  </array>
 </atominfo>
 <structure name="initialpos" >
  <crystal>
   <varray name="basis" >
    <v>       7.39873268       0.00000000       0.00000000 </v>
    <v>       0.00000000       7.39873268       0.00000000 </v>
    <v>       0.00000000       0.00000000       7.39873268 </v>
   </varray>
   <i name="volume">    405.01584032 </i>
   <varray name="rec_basis" >
    <v>       0.13515828      -0.00000000       0.00000000 </v>
    <v>       0.00000000       0.13515828       0.00000000 </v>
    <v>      -0.00000000      -0.00000000       0.13515828 </v>
   </varray>
  </crystal>
  <varray name="positions" >
   <v>       0.25000000       0.25000000       0.25000000 </v>
   <v>       0.50000000       0.00000000       0.50000000 </v>
   <v>       0.25000000       0.75000000       0.75000000 </v>
   <v>       0.50000000       0.50000000       0.00000000 </v>
   <v>       0.75000000       0.25000000       0.75000000 </v>
   <v>       0.00000000       0.00000000       0.00000000 </v>
   <v>       0.75000000       0.75000000       0.25000000 </v>
   <v>       0.00000000       0.50000000       0.50000000 </v>
   <v>       0.87500000       0.87500000       0.12500000 </v>
   <v>       0.37500000       0.12500000       0.37500000 </v>
   <v>       0.12500000       0.12500000       0.12500000 </v>
   <v>       0.62500000       0.87500000       0.37500000 </v>
   <v>       0.87500000       0.37500000       0.62500000 </v>
   <v>       0.37500000       0.62500000       0.87500000 </v>
   <v>       0.12500000       0.62500000       0.62500000 </v>
   <v>       0.62500000       0.37500000       0.87500000 </v>
   <v>       0.37500000       0.87500000       0.62500000 </v>
   <v>       0.87500000       0.12500000       0.87500000 </v>
   <v>       0.62500000       0.12500000       0.62500000 </v>
   <v>       0.12500000       0.87500000       0.87500000 </v>
   <v>       0.37500000       0.37500000       0.12500000 </v>
   <v>       0.87500000       0.62500000       0.37500000 </v>
   <v>       0.62500000       0.62500000       0.12500000 </v>
   <v>       0.12500000       0.37500000       0.37500000 </v>
  </varray>
 </structure>
 <calculation>
  <scstep>
   <time name="dav">    2.34    4.18</time>
   <time name="total">    3.33    5.51</time>
   <energy>
    <i name="alphaZ">    138.38359776 </i>
    <i name="ewald">  -3573.36042757 </i>
    <i name="hartreedc">  -3570.05719320 </i>
    <i name="XCdc">    375.99127676 </i>
    <i name="pawpsdc">   6249.78202716 </i>
    <i name="pawaedc">  -6137.81450322 </i>
    <i name="eentropy">     -0.05564570 </i>
    <i name="bandstr">   -226.08104026 </i>
    <i name="atom">   7742.25859530 </i>
    <i name="e_fr_energy">    999.04668704 </i>
    <i name="e_wo_entrp">    999.10233274 </i>
    <i name="e_0_energy">    999.06523561 </i>
   </energy>
  </scstep>
  <scstep>
   <time name="dav">    2.78    3.76</time>
   <time name="total">    2.78    3.77</time>
   <energy>
    <i name="e_fr_energy">   -120.41380742 </i>
    <i name="e_wo_entrp">   -120.42802027 </i>
    <i name="e_0_energy">   -120.41854503 </i>
   </energy>
  </scstep>
  <scstep>
   <time name="dav">    2.54    3.41</time>
   <time name="total">    2.54    3.44</time>
   <energy>
    <i name="e_fr_energy">   -215.61687998 </i>
    <i name="e_wo_entrp">   -215.65182515 </i>
    <i name="e_0_energy">   -215.62852837 </i>
   </energy>
  </scstep>
  <scstep>
   <time name="dav">    2.69    3.63</time>
   <time name="total">    2.69    3.62</time>
   <energy>
    <i name="e_fr_energy">   -217.32642720 </i>
    <i name="e_wo_entrp">   -217.36129888 </i>
    <i name="e_0_energy">   -217.33805109 </i>
   </energy>
  </scstep>
  <scstep>
   <time name="dav">    2.52    3.30</time>
   <time name="total">    2.80    3.68</time>
   <energy>
    <i name="e_fr_energy">   -217.35921987 </i>
    <i name="e_wo_entrp">   -217.39409137 </i>
    <i name="e_0_energy">   -217.37084370 </i>
   </energy>
  </scstep>
  <scstep>
   <time name="diag">    0.34    0.47</time>
   <time name="diis">    2.14    2.82</time>
   <time name="orth">    0.03    0.04</time>
   <time name="total">    3.72    4.98</time>
   <energy>
    <i name="e_fr_energy">   -188.62867781 </i>
    <i name="e_wo_entrp">   -188.66346566 </i>
    <i name="e_0_energy">   -188.64027376 </i>
   </energy>
  </scstep>
  <scstep>
   <time name="diag">    0.34    0.47</time>
   <time name="diis">    2.27    2.95</time>
   <time name="orth">    0.03    0.08</time>
   <time name="total">    3.84    5.03</time>
   <energy>
    <i name="e_fr_energy">   -189.26735852 </i>
    <i name="e_wo_entrp">   -189.30214606 </i>
    <i name="e_0_energy">   -189.27895437 </i>
   </energy>
  </scstep>
  <scstep>
   <time name="diag">    0.34    0.50</time>
   <time name="diis">    2.38    3.73</time>
   <time name="orth">    0.03    0.05</time>
   <time name="total">    3.96    5.84</time>
   <energy>
    <i name="e_fr_energy">   -189.17969098 </i>
    <i name="e_wo_entrp">   -189.21447865 </i>
    <i name="e_0_energy">   -189.19128687 </i>
   </energy>
  </scstep>
  <scstep>
   <time name="diag">    0.35    0.53</time>
   <time name="diis">    2.39    3.88</time>
   <time name="orth">    0.03    0.05</time>
   <time name="total">    3.98    6.10</time>
   <energy>
    <i name="e_fr_energy">   -189.22116278 </i>
    <i name="e_wo_entrp">   -189.25595052 </i>
    <i name="e_0_energy">   -189.23275869 </i>
   </energy>
  </scstep>
  <scstep>
   <time name="diag">    0.36    0.58</time>
   <time name="diis">    2.52    4.33</time>
   <time name="orth">    0.03    0.05</time>
   <time name="total">    4.09    6.60</time>
   <energy>
    <i name="e_fr_energy">   -189.24077195 </i>
    <i name="e_wo_entrp">   -189.27555960 </i>
    <i name="e_0_energy">   -189.25236783 </i>
   </energy>
  </scstep>
  <scstep>
   <time name="diag">    0.35    0.54</time>
   <time name="diis">    2.38    3.85</time>
   <time name="orth">    0.03    0.04</time>
   <time name="total">    3.98    6.05</time>
   <energy>
    <i name="e_fr_energy">   -189.22726865 </i>
    <i name="e_wo_entrp">   -189.26205635 </i>
    <i name="e_0_energy">   -189.23886455 </i>
   </energy>
  </scstep>
  <scstep>
   <time name="diag">    0.36    0.62</time>
   <time name="diis">    2.35    3.50</time>
   <time name="orth">    0.03    0.05</time>
   <time name="total">    3.88    5.67</time>
   <energy>
    <i name="e_fr_energy">   -189.23044526 </i>
    <i name="e_wo_entrp">   -189.26523299 </i>
    <i name="e_0_energy">   -189.24204117 </i>
   </energy>
  </scstep>
  <scstep>
   <time name="diag">    0.34    0.49</time>
   <time name="diis">    2.39    3.60</time>
   <time name="orth">    0.03    0.06</time>
   <time name="total">    3.95    5.67</time>
   <energy>
    <i name="e_fr_energy">   -189.22801769 </i>
    <i name="e_wo_entrp">   -189.26280539 </i>
    <i name="e_0_energy">   -189.23961359 </i>
   </energy>
  </scstep>
  <scstep>
   <time name="diag">    0.34    0.51</time>
   <time name="diis">    2.31    3.18</time>
   <time name="orth">    0.03    0.04</time>
   <time name="total">    3.84    5.23</time>
   <energy>
    <i name="e_fr_energy">   -189.22804190 </i>
    <i name="e_wo_entrp">   -189.26282960 </i>
    <i name="e_0_energy">   -189.23963780 </i>
   </energy>
  </scstep>
  <scstep>
   <time name="diag">    0.34    0.46</time>
   <time name="diis">    1.62    2.39</time>
   <time name="orth">    0.03    0.04</time>
   <time name="total">    2.90    4.07</time>
   <energy>
    <i name="alphaZ">    138.38359776 </i>
    <i name="ewald">  -3573.36042757 </i>
    <i name="hartreedc">  -3994.26974499 </i>
    <i name="XCdc">    401.97803970 </i>
    <i name="pawpsdc">  21994.23001472 </i>
    <i name="pawaedc"> -21889.35088899 </i>
    <i name="eentropy">      0.03478770 </i>
    <i name="bandstr">  -1009.13204451 </i>
    <i name="atom">   7742.25859530 </i>
    <i name="e_fr_energy">   -189.22807088 </i>
    <i name="e_wo_entrp">   -189.26285858 </i>
    <i name="e_0_energy">   -189.23966678 </i>
   </energy>
  </scstep>
  <structure>
   <crystal>
    <varray name="basis" >
     <v>       7.39873268       0.00000000       0.00000000 </v>
     <v>       0.00000000       7.39873268       0.00000000 </v>
     <v>       0.00000000       0.00000000       7.39873268 </v>
    </varray>
    <i name="volume">    405.01584032 </i>
    <varray name="rec_basis" >
     <v>       0.13515828      -0.00000000       0.00000000 </v>
     <v>       0.00000000       0.13515828       0.00000000 </v>
     <v>      -0.00000000      -0.00000000       0.13515828 </v>
    </varray>
   </crystal>
   <varray name="positions" >
    <v>       0.25000000       0.25000000       0.25000000 </v>
    <v>       0.50000000       0.00000000       0.50000000 </v>
    <v>       0.25000000       0.75000000       0.75000000 </v>
    <v>       0.50000000       0.50000000       0.00000000 </v>
    <v>       0.75000000       0.25000000       0.75000000 </v>
    <v>       0.00000000       0.00000000       0.00000000 </v>
    <v>       0.75000000       0.75000000       0.25000000 </v>
    <v>       0.00000000       0.50000000       0.50000000 </v>
    <v>       0.87500000       0.87500000       0.12500000 </v>
    <v>       0.37500000       0.12500000       0.37500000 </v>
    <v>       0.12500000       0.12500000       0.12500000 </v>
    <v>       0.62500000       0.87500000       0.37500000 </v>
    <v>       0.87500000       0.37500000       0.62500000 </v>
    <v>       0.37500000       0.62500000       0.87500000 </v>
    <v>       0.12500000       0.62500000       0.62500000 </v>
    <v>       0.62500000       0.37500000       0.87500000 </v>
    <v>       0.37500000       0.87500000       0.62500000 </v>
    <v>       0.87500000       0.12500000       0.87500000 </v>
    <v>       0.62500000       0.12500000       0.62500000 </v>
    <v>       0.12500000       0.87500000       0.87500000 </v>
    <v>       0.37500000       0.37500000       0.12500000 </v>
    <v>       0.87500000       0.62500000       0.37500000 </v>
    <v>       0.62500000       0.62500000       0.12500000 </v>
    <v>       0.12500000       0.37500000       0.37500000 </v>
   </varray>
  </structure>
  <varray name="forces" >
   <v>       0.00000000       0.00000000       0.00000000 </v>
   <v>       0.00000000       0.00000000      -0.00000000 </v>
   <v>       0.00000000       0.00000000       0.00000000 </v>
   <v>       0.00000000      -0.00000000       0.00000000 </v>
   <v>      -0.00000000      -0.00000000       0.00000000 </v>
   <v>       0.00000000       0.00000000      -0.00000000 </v>
   <v>       0.00000000       0.00000000       0.00000000 </v>
   <v>      -0.00000000       0.00000000       0.00000000 </v>
   <v>       0.00000000       0.00000000       0.00000000 </v>
   <v>       0.00000000      -0.00000000       0.00000000 </v>
   <v>      -0.00000000       0.00000000      -0.00000000 </v>
   <v>      -0.00000000       0.00000000      -0.00000000 </v>
   <v>      -0.00000000      -0.00000000      -0.00000000 </v>
   <v>      -0.00000000       0.00000000       0.00000000 </v>
   <v>       0.00000000       0.00000000      -0.00000000 </v>
   <v>      -0.00000000      -0.00000000       0.00000000 </v>
   <v>      -0.00000000      -0.00000000      -0.00000000 </v>
   <v>       0.00000000       0.00000000      -0.00000000 </v>
   <v>       0.00000000       0.00000000      -0.00000000 </v>
   <v>      -0.00000000      -0.00000000      -0.00000000 </v>
   <v>       0.00000000       0.00000000      -0.00000000 </v>
   <v>      -0.00000000      -0.00000000       0.00000000 </v>
   <v>      -0.00000000      -0.00000000      -0.00000000 </v>
   <v>       0.00000000      -0.00000000      -0.00000000 </v>
  </varray>
  <varray name="stress" >
   <v>      38.04273660       0.00000000       0.00000000 </v>
   <v>       0.00000000      38.04273660       0.00000000 </v>
   <v>       0.00000000       0.00000000      38.04273660 </v>
  </varray>
  <energy>
   <i name="e_fr_energy">   -189.22807088 </i>
   <i name="e_wo_entrp">   -189.26285858 </i>
   <i name="e_0_energy">   -189.23966678 </i>
  </energy>
  <time name="totalsc">   59.52   85.98</time>
  <eigenvalues>
   <array>
    <dimension dim="1">band</dimension>
    <dimension dim="2">kpoint</dimension>
    <dimension dim="3">spin</dimension>
    <field>eigene</field>
    <field>occ</field>
    <set>
     <set comment="spin 1">
      <set comment="kpoint 1">
       <r>  -20.2883    1.0000 </r>
       <r>  -19.4271    1.0000 </r>
       <r>  -19.4271    1.0000 </r>
       <r>  -19.4271    1.0000 </r>
       <r>  -19.4271    1.0000 </r>
       <r>  -19.4271    1.0000 </r>
       <r>  -19.4271    1.0000 </r>
       <r>  -18.2686    1.0000 </r>
       <r>  -18.2686    1.0000 </r>
       <r>  -18.2686    1.0000 </r>
       <r>  -18.2686    1.0000 </r>
       <r>  -18.2686    1.0000 </r>
       <r>  -18.2686    1.0000 </r>
       <r>  -18.2465    1.0000 </r>
       <r>  -18.2465    1.0000 </r>
       <r>  -18.2465    1.0000 </r>
       <r>  -10.9500    1.0000 </r>
       <r>   -8.6827    1.0000 </r>
       <r>   -8.6827    1.0000 </r>
       <r>   -8.6827    1.0000 </r>
       <r>   -8.6827    1.0000 </r>
       <r>   -8.6827    1.0000 </r>
       <r>   -8.6827    1.0000 </r>
       <r>   -6.8148    1.0000 </r>
       <r>   -6.8148    1.0000 </r>
       <r>   -6.8148    1.0000 </r>
       <r>   -6.2994    1.0000 </r>
       <r>   -6.2994    1.0000 </r>
       <r>   -6.2994    1.0000 </r>
       <r>   -6.2994    1.0000 </r>
       <r>   -6.2994    1.0000 </r>
       <r>   -6.2994    1.0000 </r>
       <r>   -3.6522    1.0000 </r>
       <r>   -3.6522    1.0000 </r>
       <r>   -3.6522    1.0000 </r>
       <r>   -3.6522    1.0000 </r>
       <r>   -3.6522    1.0000 </r>
       <r>   -3.6522    1.0000 </r>
       <r>   -3.3975    1.0000 </r>
       <r>   -3.3975    1.0000 </r>
       <r>   -3.3057    1.0000 </r>
       <r>   -3.3057    1.0000 </r>
       <r>   -3.3057    1.0000 </r>
       <r>   -3.3057    1.0000 </r>
       <r>   -3.3057    1.0000 </r>
       <r>   -3.3057    1.0000 </r>
       <r>   -2.8895    1.0000 </r>
       <r>   -2.8895    1.0000 </r>
       <r>   -2.8895    1.0000 </r>
       <r>   -2.2520    1.0000 </r>
       <r>   -2.2520    1.0000 </r>
       <r>   -2.2520    1.0000 </r>
       <r>   -2.2520    1.0000 </r>
       <r>   -2.2520    1.0000 </r>
       <r>   -2.2520    1.0000 </r>
       <r>   -1.4831    1.0000 </r>
       <r>   -1.4831    1.0000 </r>
       <r>   -1.4831    1.0000 </r>
       <r>   -1.4831    1.0000 </r>
       <r>   -1.4831    1.0000 </r>
       <r>   -1.4831    1.0000 </r>
       <r>   -0.8185    1.0000 </r>
       <r>   -0.8185    1.0000 </r>
       <r>   -0.8185    1.0000 </r>
       <r>    4.6362    0.0000 </r>
       <r>    7.5056    0.0000 </r>
       <r>    7.5056    0.0000 </r>
       <r>    7.5061    0.0000 </r>
       <r>    7.5062    0.0000 </r>
       <r>    7.5062    0.0000 </r>
       <r>    7.5062    0.0000 </r>
       <r>    7.9264    0.0000 </r>
       <r>    7.9265    0.0000 </r>
       <r>    7.9266    0.0000 </r>
       <r>    8.0775    0.0000 </r>
       <r>    9.7603    0.0000 </r>
       <r>    9.7753    0.0000 </r>
      </set>
     </set>
    </set>
   </array>
  </eigenvalues>
  <separator name="orbital magnetization" >
   <v name="MAGDIPOLOUT">      0.00000000      0.00000000      0.00000000</v>
  </separator>
  <dos>
   <i name="efermi">     -0.65017031 </i>
   <total>
    <array>
     <dimension dim="1">gridpoints</dimension>
     <dimension dim="2">spin</dimension>
     <field>energy</field>
     <field>total</field>
     <field>integrated</field>
     <set>
      <set comment="spin 1">
       <r>   -22.2883     0.0000     0.0000 </r>
       <r>   -22.1748     0.0000     0.0000 </r>
       <r>   -22.0612     0.0000     0.0000 </r>
       <r>   -21.9477    -0.0000    -0.0000 </r>
       <r>   -21.8341    -0.0000    -0.0000 </r>
       <r>   -21.7206    -0.0000    -0.0000 </r>
       <r>   -21.6070    -0.0000    -0.0000 </r>
       <r>   -21.4935    -0.0000    -0.0000 </r>
       <r>   -21.3799    -0.0000    -0.0000 </r>
       <r>   -21.2664    -0.0000    -0.0000 </r>
       <r>   -21.1528    -0.0000    -0.0000 </r>
       <r>   -21.0393    -0.0000    -0.0000 </r>
       <r>   -20.9258    -0.0005    -0.0001 </r>
       <r>   -20.8122    -0.0112    -0.0013 </r>
       <r>   -20.6987    -0.1069    -0.0135 </r>
       <r>   -20.5851    -0.3808    -0.0567 </r>
       <r>   -20.4716     0.2505    -0.0283 </r>
       <r>   -20.3580     4.1925     0.4478 </r>
       <r>   -20.2445     8.0438     1.3611 </r>
       <r>   -20.1309     5.3902     1.9731 </r>
       <r>   -20.0174     0.8101     2.0651 </r>
       <r>   -19.9039    -0.5966     1.9974 </r>
       <r>   -19.7903    -1.4169     1.8365 </r>
       <r>   -19.6768    -2.2976     1.5756 </r>
       <r>   -19.5632     8.7182     2.5655 </r>
       <r>   -19.4497    37.8481     6.8630 </r>
       <r>   -19.3361    46.4088    12.1325 </r>
       <r>   -19.2226    19.3350    14.3279 </r>
       <r>   -19.1090    -0.4034    14.2821 </r>
       <r>   -18.9955    -1.9943    14.0557 </r>
       <r>   -18.8819    -0.4567    14.0038 </r>
       <r>   -18.7684    -0.1916    13.9821 </r>
       <r>   -18.6549    -1.2577    13.8393 </r>
       <r>   -18.5413    -3.5943    13.4311 </r>
       <r>   -18.4278     5.5100    14.0568 </r>
       <r>   -18.3142    44.6975    19.1320 </r>
       <r>   -18.2007    72.5222    27.3665 </r>
       <r>   -18.0871    41.5706    32.0867 </r>
       <r>   -17.9736     4.0188    32.5430 </r>
       <r>   -17.8600    -3.5251    32.1427 </r>
       <r>   -17.7465    -1.1222    32.0153 </r>
       <r>   -17.6329    -0.1280    32.0008 </r>
       <r>   -17.5194    -0.0067    32.0000 </r>
       <r>   -17.4059    -0.0002    32.0000 </r>
       <r>   -17.2923    -0.0000    32.0000 </r>
       <r>   -17.1788    -0.0000    32.0000 </r>
       <r>   -17.0652    -0.0000    32.0000 </r>
       <r>   -16.9517    -0.0000    32.0000 </r>
       <r>   -16.8381     0.0000    32.0000 </r>
       <r>   -16.7246     0.0000    32.0000 </r>
       <r>   -16.6110     0.0000    32.0000 </r>
       <r>   -16.4975     0.0000    32.0000 </r>
       <r>   -16.3839     0.0000    32.0000 </r>
       <r>   -16.2704     0.0000    32.0000 </r>
       <r>   -16.1569     0.0000    32.0000 </r>
       <r>   -16.0433     0.0000    32.0000 </r>
       <r>   -15.9298     0.0000    32.0000 </r>
       <r>   -15.8162     0.0000    32.0000 </r>
       <r>   -15.7027     0.0000    32.0000 </r>
       <r>   -15.5891     0.0000    32.0000 </r>
       <r>   -15.4756     0.0000    32.0000 </r>
       <r>   -15.3620     0.0000    32.0000 </r>
       <r>   -15.2485     0.0000    32.0000 </r>
       <r>   -15.1349     0.0000    32.0000 </r>
       <r>   -15.0214     0.0000    32.0000 </r>
       <r>   -14.9079     0.0000    32.0000 </r>
       <r>   -14.7943     0.0000    32.0000 </r>
       <r>   -14.6808     0.0000    32.0000 </r>
       <r>   -14.5672     0.0000    32.0000 </r>
       <r>   -14.4537     0.0000    32.0000 </r>
       <r>   -14.3401     0.0000    32.0000 </r>
       <r>   -14.2266     0.0000    32.0000 </r>
       <r>   -14.1130     0.0000    32.0000 </r>
       <r>   -13.9995     0.0000    32.0000 </r>
       <r>   -13.8859     0.0000    32.0000 </r>
       <r>   -13.7724     0.0000    32.0000 </r>
       <r>   -13.6589     0.0000    32.0000 </r>
       <r>   -13.5453     0.0000    32.0000 </r>
       <r>   -13.4318     0.0000    32.0000 </r>
       <r>   -13.3182     0.0000    32.0000 </r>
       <r>   -13.2047     0.0000    32.0000 </r>
       <r>   -13.0911     0.0000    32.0000 </r>
       <r>   -12.9776     0.0000    32.0000 </r>
       <r>   -12.8640     0.0000    32.0000 </r>
       <r>   -12.7505     0.0000    32.0000 </r>
       <r>   -12.6370    -0.0000    32.0000 </r>
       <r>   -12.5234    -0.0000    32.0000 </r>
       <r>   -12.4099    -0.0000    32.0000 </r>
       <r>   -12.2963    -0.0000    32.0000 </r>
       <r>   -12.1828    -0.0000    32.0000 </r>
       <r>   -12.0692    -0.0000    32.0000 </r>
       <r>   -11.9557    -0.0000    32.0000 </r>
       <r>   -11.8421    -0.0000    32.0000 </r>
       <r>   -11.7286    -0.0000    32.0000 </r>
       <r>   -11.6150    -0.0002    32.0000 </r>
       <r>   -11.5015    -0.0057    31.9993 </r>
       <r>   -11.3880    -0.0668    31.9917 </r>
       <r>   -11.2744    -0.3156    31.9559 </r>
       <r>   -11.1609    -0.1380    31.9402 </r>
       <r>   -11.0473     2.9457    32.2747 </r>
       <r>   -10.9338     7.5927    33.1368 </r>
       <r>   -10.8202     6.5582    33.8815 </r>
       <r>   -10.7067     1.6683    34.0709 </r>
       <r>   -10.5931    -0.3594    34.0301 </r>
       <r>   -10.4796    -0.2264    34.0044 </r>
       <r>   -10.3660    -0.0359    34.0003 </r>
       <r>   -10.2525    -0.0025    34.0000 </r>
       <r>   -10.1390    -0.0001    34.0000 </r>
       <r>   -10.0254    -0.0000    34.0000 </r>
       <r>    -9.9119    -0.0000    34.0000 </r>
       <r>    -9.7983    -0.0000    34.0000 </r>
       <r>    -9.6848    -0.0000    34.0000 </r>
       <r>    -9.5712    -0.0000    34.0000 </r>
       <r>    -9.4577    -0.0000    34.0000 </r>
       <r>    -9.3441    -0.0016    33.9998 </r>
       <r>    -9.2306    -0.0377    33.9955 </r>
       <r>    -9.1170    -0.4274    33.9470 </r>
       <r>    -9.0035    -1.9515    33.7254 </r>
       <r>    -8.8900    -0.5932    33.6581 </r>
       <r>    -8.7764    18.6170    35.7720 </r>
       <r>    -8.6629    46.0588    41.0017 </r>
       <r>    -8.5493    38.5017    45.3734 </r>
       <r>    -8.4358     9.2642    46.4253 </r>
       <r>    -8.3222    -2.2302    46.1721 </r>
       <r>    -8.2087    -1.3012    46.0243 </r>
       <r>    -8.0951    -0.2005    46.0016 </r>
       <r>    -7.9816    -0.0135    46.0001 </r>
       <r>    -7.8680    -0.0004    46.0000 </r>
       <r>    -7.7545    -0.0000    46.0000 </r>
       <r>    -7.6410    -0.0000    46.0000 </r>
       <r>    -7.5274    -0.0001    46.0000 </r>
       <r>    -7.4139    -0.0049    45.9994 </r>
       <r>    -7.3003    -0.0791    45.9904 </r>
       <r>    -7.1868    -0.5630    45.9265 </r>
       <r>    -7.0732    -1.1931    45.7911 </r>
       <r>    -6.9597     3.5277    46.1916 </r>
       <r>    -6.8461    17.7906    48.2116 </r>
       <r>    -6.7326    23.2468    50.8512 </r>
       <r>    -6.6190     8.8770    51.8592 </r>
       <r>    -6.5055    -0.3720    51.8169 </r>
       <r>    -6.3920    17.8519    53.8439 </r>
       <r>    -6.2784    45.9463    59.0609 </r>
       <r>    -6.1649    38.2071    63.3991 </r>
       <r>    -6.0513     9.0353    64.4251 </r>
       <r>    -5.9378    -2.2506    64.1695 </r>
       <r>    -5.8242    -1.2835    64.0238 </r>
       <r>    -5.7107    -0.1959    64.0015 </r>
       <r>    -5.5971    -0.0131    64.0000 </r>
       <r>    -5.4836    -0.0004    64.0000 </r>
       <r>    -5.3701    -0.0000    64.0000 </r>
       <r>    -5.2565    -0.0000    64.0000 </r>
       <r>    -5.1430    -0.0000    64.0000 </r>
       <r>    -5.0294    -0.0000    64.0000 </r>
       <r>    -4.9159    -0.0000    64.0000 </r>
       <r>    -4.8023    -0.0000    64.0000 </r>
       <r>    -4.6888    -0.0000    64.0000 </r>
       <r>    -4.5752    -0.0000    64.0000 </r>
       <r>    -4.4617    -0.0000    64.0000 </r>
       <r>    -4.3481    -0.0005    63.9999 </r>
       <r>    -4.2346    -0.0155    63.9982 </r>
       <r>    -4.1211    -0.2227    63.9729 </r>
       <r>    -4.0075    -1.3868    63.8154 </r>
       <r>    -3.8940    -2.1754    63.5684 </r>
       <r>    -3.7804     9.8205    64.6835 </r>
       <r>    -3.6669    37.6055    68.9534 </r>
       <r>    -3.5533    44.8065    74.0410 </r>
       <r>    -3.4398    37.2999    78.2762 </r>
       <r>    -3.3262    53.2776    84.3256 </r>
       <r>    -3.2127    51.5654    90.1807 </r>
       <r>    -3.0991    18.4713    92.2780 </r>
       <r>    -2.9856     7.6546    93.1471 </r>
       <r>    -2.8721    20.6861    95.4959 </r>
       <r>    -2.7585    18.9820    97.6512 </r>
       <r>    -2.6450     4.0019    98.1056 </r>
       <r>    -2.5314    -3.5167    97.7063 </r>
       <r>    -2.4179     2.9953    98.0464 </r>
       <r>    -2.3043    29.9005   101.4415 </r>
       <r>    -2.1908    48.5344   106.9524 </r>
       <r>    -2.0772    27.5252   110.0777 </r>
       <r>    -1.9637     2.3166   110.3408 </r>
       <r>    -1.8501    -3.5667   109.9358 </r>
       <r>    -1.7366    -3.0673   109.5875 </r>
       <r>    -1.6231     7.8833   110.4826 </r>
       <r>    -1.5095    36.8880   114.6711 </r>
       <r>    -1.3960    46.8566   119.9914 </r>
       <r>    -1.2824    20.2494   122.2906 </r>
       <r>    -1.1689    -0.8447   122.1947 </r>
       <r>    -1.0553    -3.0482   121.8486 </r>
       <r>    -0.9418     5.2293   122.4424 </r>
       <r>    -0.8282    20.3627   124.7545 </r>
       <r>    -0.7147    22.2687   127.2830 </r>
       <r>    -0.6011     8.0037   128.1918 </r>
       <r>    -0.4876    -0.6024   128.1234 </r>
       <r>    -0.3741    -0.8934   128.0219 </r>
       <r>    -0.2605    -0.1778   128.0017 </r>
       <r>    -0.1470    -0.0146   128.0001 </r>
       <r>    -0.0334    -0.0006   128.0000 </r>
       <r>     0.0801    -0.0000   128.0000 </r>
       <r>     0.1937    -0.0000   128.0000 </r>
       <r>     0.3072    -0.0000   128.0000 </r>
       <r>     0.4208    -0.0000   128.0000 </r>
       <r>     0.5343     0.0000   128.0000 </r>
       <r>     0.6478     0.0000   128.0000 </r>
       <r>     0.7614     0.0000   128.0000 </r>
       <r>     0.8749     0.0000   128.0000 </r>
       <r>     0.9885     0.0000   128.0000 </r>
       <r>     1.1020     0.0000   128.0000 </r>
       <r>     1.2156     0.0000   128.0000 </r>
       <r>     1.3291     0.0000   128.0000 </r>
       <r>     1.4427     0.0000   128.0000 </r>
       <r>     1.5562     0.0000   128.0000 </r>
       <r>     1.6698     0.0000   128.0000 </r>
       <r>     1.7833     0.0000   128.0000 </r>
       <r>     1.8968     0.0000   128.0000 </r>
       <r>     2.0104     0.0000   128.0000 </r>
       <r>     2.1239     0.0000   128.0000 </r>
       <r>     2.2375     0.0000   128.0000 </r>
       <r>     2.3510     0.0000   128.0000 </r>
       <r>     2.4646     0.0000   128.0000 </r>
       <r>     2.5781     0.0000   128.0000 </r>
       <r>     2.6917     0.0000   128.0000 </r>
       <r>     2.8052     0.0000   128.0000 </r>
       <r>     2.9188     0.0000   128.0000 </r>
       <r>     3.0323    -0.0000   128.0000 </r>
       <r>     3.1458    -0.0000   128.0000 </r>
       <r>     3.2594    -0.0000   128.0000 </r>
       <r>     3.3729    -0.0000   128.0000 </r>
       <r>     3.4865    -0.0000   128.0000 </r>
       <r>     3.6000    -0.0000   128.0000 </r>
       <r>     3.7136    -0.0000   128.0000 </r>
       <r>     3.8271    -0.0000   128.0000 </r>
       <r>     3.9407    -0.0001   128.0000 </r>
       <r>     4.0542    -0.0026   127.9997 </r>
       <r>     4.1678    -0.0374   127.9954 </r>
       <r>     4.2813    -0.2317   127.9691 </r>
       <r>     4.3948    -0.3518   127.9292 </r>
       <r>     4.5084     1.7376   128.1265 </r>
       <r>     4.6219     6.6333   128.8797 </r>
       <r>     4.7355     7.5441   129.7363 </r>
       <r>     4.8490     2.8612   130.0611 </r>
       <r>     4.9626    -0.1580   130.0432 </r>
       <r>     5.0761    -0.3103   130.0080 </r>
       <r>     5.1897    -0.0644   130.0006 </r>
       <r>     5.3032    -0.0055   130.0000 </r>
       <r>     5.4168    -0.0002   130.0000 </r>
       <r>     5.5303    -0.0000   130.0000 </r>
       <r>     5.6438    -0.0000   130.0000 </r>
       <r>     5.7574    -0.0000   130.0000 </r>
       <r>     5.8709    -0.0000   130.0000 </r>
       <r>     5.9845    -0.0000   130.0000 </r>
       <r>     6.0980    -0.0000   130.0000 </r>
       <r>     6.2116    -0.0000   130.0000 </r>
       <r>     6.3251    -0.0000   130.0000 </r>
       <r>     6.4387    -0.0000   130.0000 </r>
       <r>     6.5522    -0.0000   130.0000 </r>
       <r>     6.6658    -0.0000   130.0000 </r>
       <r>     6.7793    -0.0002   130.0000 </r>
       <r>     6.8928    -0.0066   129.9992 </r>
       <r>     7.0064    -0.1167   129.9860 </r>
       <r>     7.1199    -0.9279   129.8806 </r>
       <r>     7.2335    -2.4416   129.6034 </r>
       <r>     7.3470     4.6762   130.1344 </r>
       <r>     7.4606    31.7862   133.7435 </r>
       <r>     7.5741    47.6027   139.1486 </r>
       <r>     7.6877    24.4352   141.9231 </r>
       <r>     7.8012     6.7592   142.6906 </r>
       <r>     7.9147    18.5684   144.7989 </r>
       <r>     8.0283    26.9252   147.8561 </r>
       <r>     8.1418    16.2696   149.7035 </r>
       <r>     8.2554     3.8909   150.1453 </r>
       <r>     8.3689    -0.5592   150.0818 </r>
       <r>     8.4825    -0.5745   150.0165 </r>
       <r>     8.5960    -0.1318   150.0016 </r>
       <r>     8.7096    -0.0133   150.0001 </r>
       <r>     8.8231    -0.0006   150.0000 </r>
       <r>     8.9367    -0.0000   150.0000 </r>
       <r>     9.0502    -0.0001   150.0000 </r>
       <r>     9.1637    -0.0029   149.9997 </r>
       <r>     9.2773    -0.0479   149.9942 </r>
       <r>     9.3908    -0.3520   149.9543 </r>
       <r>     9.5044    -0.8006   149.8634 </r>
       <r>     9.6179     2.0742   150.0989 </r>
       <r>     9.7315    11.4380   151.3976 </r>
       <r>     9.8450    15.8978   153.2027 </r>
       <r>     9.9586     7.6967   154.0767 </r>
       <r>    10.0721     0.2641   154.1066 </r>
       <r>    10.1857    -0.7289   154.0239 </r>
       <r>    10.2992    -0.1903   154.0023 </r>
       <r>    10.4127    -0.0190   154.0001 </r>
       <r>    10.5263    -0.0009   154.0000 </r>
       <r>    10.6398    -0.0000   154.0000 </r>
       <r>    10.7534    -0.0000   154.0000 </r>
       <r>    10.8669    -0.0000   154.0000 </r>
       <r>    10.9805    -0.0000   154.0000 </r>
       <r>    11.0940    -0.0000   154.0000 </r>
       <r>    11.2076     0.0000   154.0000 </r>
       <r>    11.3211     0.0000   154.0000 </r>
       <r>    11.4347     0.0000   154.0000 </r>
       <r>    11.5482     0.0000   154.0000 </r>
       <r>    11.6617     0.0000   154.0000 </r>
       <r>    11.7753     0.0000   154.0000 </r>
      </set>
     </set>
    </array>
   </total>
  </dos>
 </calculation>
 <structure name="finalpos" >
  <crystal>
   <varray name="basis" >
    <v>       7.39873268       0.00000000       0.00000000 </v>
    <v>       0.00000000       7.39873268       0.00000000 </v>
    <v>       0.00000000       0.00000000       7.39873268 </v>
   </varray>
   <i name="volume">    405.01584032 </i>
   <varray name="rec_basis" >
    <v>       0.13515828      -0.00000000       0.00000000 </v>
    <v>       0.00000000       0.13515828       0.00000000 </v>
    <v>      -0.00000000      -0.00000000       0.13515828 </v>
   </varray>
  </crystal>
  <varray name="positions" >
   <v>       0.25000000       0.25000000       0.25000000 </v>
   <v>       0.50000000       0.00000000       0.50000000 </v>
   <v>       0.25000000       0.75000000       0.75000000 </v>
   <v>       0.50000000       0.50000000       0.00000000 </v>
   <v>       0.75000000       0.25000000       0.75000000 </v>
   <v>       0.00000000       0.00000000       0.00000000 </v>
   <v>       0.75000000       0.75000000       0.25000000 </v>
   <v>       0.00000000       0.50000000       0.50000000 </v>
   <v>       0.87500000       0.87500000       0.12500000 </v>
   <v>       0.37500000       0.12500000       0.37500000 </v>
   <v>       0.12500000       0.12500000       0.12500000 </v>
   <v>       0.62500000       0.87500000       0.37500000 </v>
   <v>       0.87500000       0.37500000       0.62500000 </v>
   <v>       0.37500000       0.62500000       0.87500000 </v>
   <v>       0.12500000       0.62500000       0.62500000 </v>
   <v>       0.62500000       0.37500000       0.87500000 </v>
   <v>       0.37500000       0.87500000       0.62500000 </v>
   <v>       0.87500000       0.12500000       0.87500000 </v>
   <v>       0.62500000       0.12500000       0.62500000 </v>
   <v>       0.12500000       0.87500000       0.87500000 </v>
   <v>       0.37500000       0.37500000       0.12500000 </v>
   <v>       0.87500000       0.62500000       0.37500000 </v>
   <v>       0.62500000       0.62500000       0.12500000 </v>
   <v>       0.12500000       0.37500000       0.37500000 </v>
  </varray>
 </structure>
</modeling>
